##File Type: Far field
##File Format: 6
##Source: DipPhiRot0
##Date: 2021-04-14 14:14:31
** File exported by POSTFEKO version 2019.1-353059 (x64)

#Configuration Name: StandardConfiguration1
#Request Name: FarField1
#Frequency: 1.00000000E+9
#Coordinate System: Spherical
#No. of Theta Samples: 37
#No. of Phi Samples: 73
#Result Type: Directivity
#No. of Header Lines: 1
#                 "Theta"           "Phi"             "Re(Etheta)"      "Im(Etheta)"      "Re(Ephi)"        "Im(Ephi)"        "Directivity(Theta)""Directivity(Phi)""Directivity(Total)"
                    0.00000000E+0     0.00000000E+0     0.00000000E+0     0.00000000E+0    -3.54313792E-1    -5.93974929E-1    -1.00000000E+3     2.17131268E+0     2.17131268E+0   
                    5.00000000E+0     0.00000000E+0     0.00000000E+0     0.00000000E+0    -3.54313770E-1    -5.93975061E-1    -1.00000000E+3     2.17131397E+0     2.17131397E+0   
                    1.00000000E+1     0.00000000E+0     0.00000000E+0     0.00000000E+0    -3.54313711E-1    -5.93975266E-1    -1.00000000E+3     2.17131581E+0     2.17131581E+0   
                    1.50000000E+1     0.00000000E+0     0.00000000E+0     0.00000000E+0    -3.54313639E-1    -5.93975463E-1    -1.00000000E+3     2.17131746E+0     2.17131746E+0   
                    2.00000000E+1     0.00000000E+0     0.00000000E+0     0.00000000E+0    -3.54313589E-1    -5.93975575E-1    -1.00000000E+3     2.17131835E+0     2.17131835E+0   
                    2.50000000E+1     0.00000000E+0     0.00000000E+0     0.00000000E+0    -3.54313589E-1    -5.93975567E-1    -1.00000000E+3     2.17131826E+0     2.17131826E+0   
                    3.00000000E+1     0.00000000E+0     0.00000000E+0     0.00000000E+0    -3.54313641E-1    -5.93975455E-1    -1.00000000E+3     2.17131739E+0     2.17131739E+0   
                    3.50000000E+1     0.00000000E+0     0.00000000E+0     0.00000000E+0    -3.54313723E-1    -5.93975295E-1    -1.00000000E+3     2.17131620E+0     2.17131620E+0   
                    4.00000000E+1     0.00000000E+0     0.00000000E+0     0.00000000E+0    -3.54313795E-1    -5.93975161E-1    -1.00000000E+3     2.17131522E+0     2.17131522E+0   
                    4.50000000E+1     0.00000000E+0     0.00000000E+0     0.00000000E+0    -3.54313825E-1    -5.93975108E-1    -1.00000000E+3     2.17131483E+0     2.17131483E+0   
                    5.00000000E+1     0.00000000E+0     0.00000000E+0     0.00000000E+0    -3.54313800E-1    -5.93975154E-1    -1.00000000E+3     2.17131517E+0     2.17131517E+0   
                    5.50000000E+1     0.00000000E+0     0.00000000E+0     0.00000000E+0    -3.54313738E-1    -5.93975271E-1    -1.00000000E+3     2.17131602E+0     2.17131602E+0   
                    6.00000000E+1     0.00000000E+0     0.00000000E+0     0.00000000E+0    -3.54313671E-1    -5.93975401E-1    -1.00000000E+3     2.17131700E+0     2.17131700E+0   
                    6.50000000E+1     0.00000000E+0     0.00000000E+0     0.00000000E+0    -3.54313632E-1    -5.93975482E-1    -1.00000000E+3     2.17131763E+0     2.17131763E+0   
                    7.00000000E+1     0.00000000E+0     0.00000000E+0     0.00000000E+0    -3.54313633E-1    -5.93975479E-1    -1.00000000E+3     2.17131759E+0     2.17131759E+0   
                    7.50000000E+1     0.00000000E+0     0.00000000E+0     0.00000000E+0    -3.54313664E-1    -5.93975393E-1    -1.00000000E+3     2.17131687E+0     2.17131687E+0   
                    8.00000000E+1     0.00000000E+0     0.00000000E+0     0.00000000E+0    -3.54313702E-1    -5.93975271E-1    -1.00000000E+3     2.17131580E+0     2.17131580E+0   
                    8.50000000E+1     0.00000000E+0     0.00000000E+0     0.00000000E+0    -3.54313727E-1    -5.93975175E-1    -1.00000000E+3     2.17131492E+0     2.17131492E+0   
                    9.00000000E+1     0.00000000E+0     0.00000000E+0     0.00000000E+0    -3.54313731E-1    -5.93975154E-1    -1.00000000E+3     2.17131473E+0     2.17131473E+0   
                    9.50000000E+1     0.00000000E+0     0.00000000E+0     0.00000000E+0    -3.54313726E-1    -5.93975220E-1    -1.00000000E+3     2.17131540E+0     2.17131540E+0   
                    1.00000000E+2     0.00000000E+0     0.00000000E+0     0.00000000E+0    -3.54313724E-1    -5.93975340E-1    -1.00000000E+3     2.17131669E+0     2.17131669E+0   
                    1.05000000E+2     0.00000000E+0     0.00000000E+0     0.00000000E+0    -3.54313734E-1    -5.93975451E-1    -1.00000000E+3     2.17131795E+0     2.17131795E+0   
                    1.10000000E+2     0.00000000E+0     0.00000000E+0     0.00000000E+0    -3.54313746E-1    -5.93975495E-1    -1.00000000E+3     2.17131850E+0     2.17131850E+0   
                    1.15000000E+2     0.00000000E+0     0.00000000E+0     0.00000000E+0    -3.54313742E-1    -5.93975449E-1    -1.00000000E+3     2.17131797E+0     2.17131797E+0   
                    1.20000000E+2     0.00000000E+0     0.00000000E+0     0.00000000E+0    -3.54313711E-1    -5.93975336E-1    -1.00000000E+3     2.17131656E+0     2.17131656E+0   
                    1.25000000E+2     0.00000000E+0     0.00000000E+0     0.00000000E+0    -3.54313660E-1    -5.93975216E-1    -1.00000000E+3     2.17131494E+0     2.17131494E+0   
                    1.30000000E+2     0.00000000E+0     0.00000000E+0     0.00000000E+0    -3.54313619E-1    -5.93975150E-1    -1.00000000E+3     2.17131396E+0     2.17131396E+0   
                    1.35000000E+2     0.00000000E+0     0.00000000E+0     0.00000000E+0    -3.54313622E-1    -5.93975168E-1    -1.00000000E+3     2.17131417E+0     2.17131417E+0   
                    1.40000000E+2     0.00000000E+0     0.00000000E+0     0.00000000E+0    -3.54313683E-1    -5.93975256E-1    -1.00000000E+3     2.17131552E+0     2.17131552E+0   
                    1.45000000E+2     0.00000000E+0     0.00000000E+0     0.00000000E+0    -3.54313785E-1    -5.93975365E-1    -1.00000000E+3     2.17131734E+0     2.17131734E+0   
                    1.50000000E+2     0.00000000E+0     0.00000000E+0     0.00000000E+0    -3.54313876E-1    -5.93975436E-1    -1.00000000E+3     2.17131870E+0     2.17131870E+0   
                    1.55000000E+2     0.00000000E+0     0.00000000E+0     0.00000000E+0    -3.54313899E-1    -5.93975437E-1    -1.00000000E+3     2.17131886E+0     2.17131886E+0   
                    1.60000000E+2     0.00000000E+0     0.00000000E+0     0.00000000E+0    -3.54313822E-1    -5.93975373E-1    -1.00000000E+3     2.17131767E+0     2.17131767E+0   
                    1.65000000E+2     0.00000000E+0     0.00000000E+0     0.00000000E+0    -3.54313660E-1    -5.93975279E-1    -1.00000000E+3     2.17131561E+0     2.17131561E+0   
                    1.70000000E+2     0.00000000E+0     0.00000000E+0     0.00000000E+0    -3.54313476E-1    -5.93975201E-1    -1.00000000E+3     2.17131359E+0     2.17131359E+0   
                    1.75000000E+2     0.00000000E+0     0.00000000E+0     0.00000000E+0    -3.54313350E-1    -5.93975171E-1    -1.00000000E+3     2.17131245E+0     2.17131245E+0   
                    1.80000000E+2     0.00000000E+0     0.00000000E+0     0.00000000E+0    -3.54313344E-1    -5.93975191E-1    -1.00000000E+3     2.17131263E+0     2.17131263E+0   
                    0.00000000E+0     5.00000000E+0    -3.08804817E-2    -5.17683261E-2    -3.52965521E-1    -5.91714675E-1    -1.90227671E+1     2.13819720E+0     2.17131268E+0   
                    5.00000000E+0     5.00000000E+0    -3.07625099E-2    -5.15706249E-2    -3.52960217E-1    -5.91706562E-1    -1.90560047E+1     2.13807512E+0     2.17094000E+0   
                    1.00000000E+1     5.00000000E+0    -3.04095295E-2    -5.09790568E-2    -3.52944533E-1    -5.91682269E-1    -1.91562244E+1     2.13771079E+0     2.16983140E+0   
                    1.50000000E+1     5.00000000E+0    -2.98243206E-2    -4.99982603E-2    -3.52918967E-1    -5.91642458E-1    -1.93249742E+1     2.13711461E+0     2.16801964E+0   
                    2.00000000E+1     5.00000000E+0    -2.90114857E-2    -4.86359223E-2    -3.52884328E-1    -5.91588274E-1    -1.95649439E+1     2.13630413E+0     2.16555885E+0   
                    2.50000000E+1     5.00000000E+0    -2.79774029E-2    -4.69027067E-2    -3.52841698E-1    -5.91521334E-1    -1.98801463E+1     2.13530379E+0     2.16252313E+0   
                    3.00000000E+1     5.00000000E+0    -2.67301628E-2    -4.48121536E-2    -3.52792375E-1    -5.91443689E-1    -2.02762076E+1     2.13414415E+0     2.15900440E+0   
                    3.50000000E+1     5.00000000E+0    -2.52794924E-2    -4.23805510E-2    -3.52737837E-1    -5.91357756E-1    -2.07608131E+1     2.13286086E+0     2.15510952E+0   
                    4.00000000E+1     5.00000000E+0    -2.36366660E-2    -3.96267826E-2    -3.52679705E-1    -5.91266214E-1    -2.13443916E+1     2.13149338E+0     2.15095694E+0   
                    4.50000000E+1     5.00000000E+0    -2.18144052E-2    -3.65721562E-2    -3.52619717E-1    -5.91171898E-1    -2.20411807E+1     2.13008362E+0     2.14667292E+0   
                    5.00000000E+1     5.00000000E+0    -1.98267681E-2    -3.32402166E-2    -3.52559684E-1    -5.91077689E-1    -2.28709399E+1     2.12867450E+0     2.14238765E+0   
                    5.50000000E+1     5.00000000E+0    -1.76890287E-2    -2.96565473E-2    -3.52501447E-1    -5.90986424E-1    -2.38618296E+1     2.12730869E+0     2.13823125E+0   
                    6.00000000E+1     5.00000000E+0    -1.54175499E-2    -2.58485616E-2    -3.52446804E-1    -5.90900822E-1    -2.50555370E+1     2.12602730E+0     2.13432987E+0   
                    6.50000000E+1     5.00000000E+0    -1.30296512E-2    -2.18452866E-2    -3.52397443E-1    -5.90823423E-1    -2.65171303E+1     2.12486884E+0     2.13080202E+0   
                    7.00000000E+1     5.00000000E+0    -1.05434744E-2    -1.76771403E-2    -3.52354873E-1    -5.90756543E-1    -2.83560624E+1     2.12386823E+0     2.12775507E+0   
                    7.50000000E+1     5.00000000E+0    -7.97784825E-3    -1.33757029E-2    -3.52320374E-1    -5.90702216E-1    -3.07779839E+1     2.12305586E+0     2.12528208E+0   
                    8.00000000E+1     5.00000000E+0    -5.35215221E-3    -8.97348496E-3    -3.52294971E-1    -5.90662130E-1    -3.42451030E+1     2.12245673E+0     2.12345899E+0   
                    8.50000000E+1     5.00000000E+0    -2.68617966E-3    -4.50369376E-3    -3.52279414E-1    -5.90637560E-1    -4.02329546E+1     2.12208958E+0     2.12234208E+0   
                    9.00000000E+1     5.00000000E+0   -1.88718049E-18   -3.16408123E-18    -3.52274170E-1    -5.90629298E-1    -3.43299381E+2     2.12196603E+0     2.12196603E+0   
                    9.50000000E+1     5.00000000E+0     2.68617961E-3     4.50369410E-3    -3.52279408E-1    -5.90637605E-1    -4.02329542E+1     2.12209003E+0     2.12234253E+0   
                    1.00000000E+2     5.00000000E+0     5.35215243E-3     8.97348600E-3    -3.52294985E-1    -5.90662198E-1    -3.42451022E+1     2.12245757E+0     2.12345982E+0   
                    1.05000000E+2     5.00000000E+0     7.97784964E-3     1.33757042E-2    -3.52320436E-1    -5.90702273E-1    -3.07779829E+1     2.12305688E+0     2.12528310E+0   
                    1.10000000E+2     5.00000000E+0     1.05434776E-2     1.76771407E-2    -3.52354979E-1    -5.90756560E-1    -2.83560616E+1     2.12386909E+0     2.12775593E+0   
                    1.15000000E+2     5.00000000E+0     1.30296551E-2     2.18452853E-2    -3.52397550E-1    -5.90823389E-1    -2.65171300E+1     2.12486916E+0     2.13080234E+0   
                    1.20000000E+2     5.00000000E+0     1.54175517E-2     2.58485587E-2    -3.52446844E-1    -5.90900757E-1    -2.50555374E+1     2.12602685E+0     2.13432942E+0   
                    1.25000000E+2     5.00000000E+0     1.76890250E-2     2.96565445E-2    -3.52501373E-1    -5.90986369E-1    -2.38618307E+1     2.12730761E+0     2.13823016E+0   
                    1.30000000E+2     5.00000000E+0     1.98267582E-2     3.32402163E-2    -3.52559508E-1    -5.91077683E-1    -2.28709411E+1     2.12867330E+0     2.14238645E+0   
                    1.35000000E+2     5.00000000E+0     2.18143929E-2     3.65721597E-2    -3.52619517E-1    -5.91171956E-1    -2.20411814E+1     2.13008295E+0     2.14667226E+0   
                    1.40000000E+2     5.00000000E+0     2.36366586E-2     3.96267889E-2    -3.52679595E-1    -5.91266308E-1    -2.13443913E+1     2.13149368E+0     2.15095724E+0   
                    1.45000000E+2     5.00000000E+0     2.52794967E-2     4.23805560E-2    -3.52737897E-1    -5.91357825E-1    -2.07608120E+1     2.13286199E+0     2.15511066E+0   
                    1.50000000E+2     5.00000000E+0     2.67301803E-2     4.48121523E-2    -3.52792606E-1    -5.91443672E-1    -2.02762063E+1     2.13414546E+0     2.15900571E+0   
                    1.55000000E+2     5.00000000E+0     2.79774272E-2     4.69026966E-2    -3.52842005E-1    -5.91521207E-1    -1.98801457E+1     2.13530439E+0     2.16252373E+0   
                    1.60000000E+2     5.00000000E+0     2.90115046E-2     4.86359059E-2    -3.52884558E-1    -5.91588075E-1    -1.95649446E+1     2.13630346E+0     2.16555818E+0   
                    1.65000000E+2     5.00000000E+0     2.98243223E-2     4.99982450E-2    -3.52918986E-1    -5.91642277E-1    -1.93249760E+1     2.13711277E+0     2.16801780E+0   
                    1.70000000E+2     5.00000000E+0     3.04095092E-2     5.09790513E-2    -3.52944298E-1    -5.91682205E-1    -1.91562266E+1     2.13770859E+0     2.16982920E+0   
                    1.75000000E+2     5.00000000E+0     3.07624734E-2     5.15706345E-2    -3.52959799E-1    -5.91706672E-1    -1.90560062E+1     2.13807361E+0     2.17093849E+0   
                    1.80000000E+2     5.00000000E+0     3.08804427E-2     5.17683489E-2    -3.52965075E-1    -5.91714936E-1    -1.90227672E+1     2.13819715E+0     2.17131263E+0   
                    0.00000000E+0     1.00000000E+1    -6.15259442E-2    -1.03142664E-1    -3.48930969E-1    -5.84951115E-1    -1.30352827E+1     2.03834186E+0     2.17131268E+0   
                    5.00000000E+0     1.00000000E+1    -6.12881851E-2    -1.02744512E-1    -3.48910279E-1    -5.84918876E-1    -1.30688865E+1     2.03785360E+0     2.16982955E+0   
                    1.00000000E+1     1.00000000E+1    -6.05769870E-2    -1.01553436E-1    -3.48848965E-1    -5.84822931E-1    -1.31701933E+1     2.03640206E+0     2.16542228E+0   
                    1.50000000E+1     1.00000000E+1    -5.93984928E-2    -9.95796270E-2    -3.48748924E-1    -5.84666144E-1    -1.33407185E+1     2.03403052E+0     2.15822009E+0   
                    2.00000000E+1     1.00000000E+1    -5.77628317E-2    -9.68399066E-2    -3.48613248E-1    -5.84453245E-1    -1.35830979E+1     2.03081031E+0     2.14843513E+0   
                    2.50000000E+1     1.00000000E+1    -5.56839590E-2    -9.33574826E-2    -3.48446112E-1    -5.84190715E-1    -1.39012715E+1     2.02683886E+0     2.13635695E+0   
                    3.00000000E+1     1.00000000E+1    -5.31794445E-2    -8.91616102E-2    -3.48252621E-1    -5.83886589E-1    -1.43007752E+1     2.02223673E+0     2.12234457E+0   
                    3.50000000E+1     1.00000000E+1    -5.02702191E-2    -8.42871780E-2    -3.48038660E-1    -5.83550201E-1    -1.47891903E+1     2.01714392E+0     2.10681648E+0   
                    4.00000000E+1     1.00000000E+1    -4.69802901E-2    -7.87742359E-2    -3.47810714E-1    -5.83191871E-1    -1.53768298E+1     2.01171545E+0     2.09023860E+0   
                    4.50000000E+1     1.00000000E+1    -4.33364341E-2    -7.26674843E-2    -3.47575695E-1    -5.82822558E-1    -1.60778081E+1     2.00611647E+0     2.07311077E+0   
                    5.00000000E+1     1.00000000E+1    -3.93678767E-2    -6.60157454E-2    -3.47340739E-1    -5.82453506E-1    -1.69117575E+1     2.00051718E+0     2.05595194E+0   
                    5.50000000E+1     1.00000000E+1    -3.51059676E-2    -5.88714335E-2    -3.47112997E-1    -5.82095898E-1    -1.79067110E+1     1.99508759E+0     2.03928458E+0   
                    6.00000000E+1     1.00000000E+1    -3.05838622E-2    -5.12900384E-2    -3.46899403E-1    -5.81760525E-1    -1.91042321E+1     1.98999243E+0     2.02361876E+0   
                    6.50000000E+1     1.00000000E+1    -2.58362188E-2    -4.33296318E-2    -3.46706452E-1    -5.81457488E-1    -2.05692731E+1     1.98538630E+0     2.00943631E+0   
                    7.00000000E+1     1.00000000E+1    -2.08989184E-2    -3.50504028E-2    -3.46539987E-1    -5.81195921E-1    -2.24111818E+1     1.98140907E+0     1.99717562E+0   
                    7.50000000E+1     1.00000000E+1    -1.58088103E-2    -2.65142272E-2    -3.46405027E-1    -5.80983731E-1    -2.48355181E+1     1.97818184E+0     1.98721755E+0   
                    8.00000000E+1     1.00000000E+1    -1.06034830E-2    -1.77842711E-2    -3.46305622E-1    -5.80827365E-1    -2.83044168E+1     1.97580319E+0     1.97987285E+0   
                    8.50000000E+1     1.00000000E+1    -5.32105780E-3    -8.92463033E-3    -3.46244750E-1    -5.80731598E-1    -3.42933583E+1     1.97434611E+0     1.97537167E+0   
                    9.00000000E+1     1.00000000E+1   -3.73815325E-18   -6.26976086E-18    -3.46224243E-1    -5.80699363E-1    -3.37360152E+2     1.97385549E+0     1.97385549E+0   
                    9.50000000E+1     1.00000000E+1     5.32105752E-3     8.92463102E-3    -3.46244732E-1    -5.80731643E-1    -3.42933579E+1     1.97434649E+0     1.97537205E+0   
                    1.00000000E+2     1.00000000E+1     1.06034828E-2     1.77842732E-2    -3.46305616E-1    -5.80827433E-1    -2.83044161E+1     1.97580390E+0     1.97987356E+0   
                    1.05000000E+2     1.00000000E+1     1.58088121E-2     2.65142298E-2    -3.46405067E-1    -5.80983788E-1    -2.48355172E+1     1.97818272E+0     1.98721844E+0   
                    1.10000000E+2     1.00000000E+1     2.08989238E-2     3.50504038E-2    -3.46540076E-1    -5.81195937E-1    -2.24111811E+1     1.98140983E+0     1.99717638E+0   
                    1.15000000E+2     1.00000000E+1     2.58362260E-2     4.33296292E-2    -3.46706549E-1    -5.81457454E-1    -2.05692728E+1     1.98538656E+0     2.00943657E+0   
                    1.20000000E+2     1.00000000E+1     3.05838658E-2     5.12900325E-2    -3.46899444E-1    -5.81760458E-1    -1.91042325E+1     1.98999196E+0     2.02361829E+0   
                    1.25000000E+2     1.00000000E+1     3.51059610E-2     5.88714276E-2    -3.47112932E-1    -5.82095839E-1    -1.79067120E+1     1.99508651E+0     2.03928350E+0   
                    1.30000000E+2     1.00000000E+1     3.93678582E-2     6.60157442E-2    -3.47340576E-1    -5.82453495E-1    -1.69117587E+1     2.00051598E+0     2.05595074E+0   
                    1.35000000E+2     1.00000000E+1     4.33364106E-2     7.26674909E-2    -3.47575506E-1    -5.82822610E-1    -1.60778087E+1     2.00611581E+0     2.07311011E+0   
                    1.40000000E+2     1.00000000E+1     4.69802757E-2     7.87742480E-2    -3.47810608E-1    -5.83191961E-1    -1.53768295E+1     2.01171574E+0     2.09023889E+0   
                    1.45000000E+2     1.00000000E+1     5.02702274E-2     8.42871879E-2    -3.48038717E-1    -5.83550269E-1    -1.47891891E+1     2.01714505E+0     2.10681761E+0   
                    1.50000000E+2     1.00000000E+1     5.31794785E-2     8.91616081E-2    -3.48252844E-1    -5.83886575E-1    -1.43007739E+1     2.02223804E+0     2.12234588E+0   
                    1.55000000E+2     1.00000000E+1     5.56840062E-2     9.33574634E-2    -3.48446407E-1    -5.84190594E-1    -1.39012709E+1     2.02683947E+0     2.13635756E+0   
                    1.60000000E+2     1.00000000E+1     5.77628682E-2     9.68398750E-2    -3.48613469E-1    -5.84453054E-1    -1.35830986E+1     2.03080966E+0     2.14843448E+0   
                    1.65000000E+2     1.00000000E+1     5.93984953E-2     9.95795973E-2    -3.48748939E-1    -5.84665970E-1    -1.33407203E+1     2.03402871E+0     2.15821828E+0   
                    1.70000000E+2     1.00000000E+1     6.05769463E-2     1.01553426E-1    -3.48848730E-1    -5.84822872E-1    -1.31701955E+1     2.03639988E+0     2.16542010E+0   
                    1.75000000E+2     1.00000000E+1     6.12881124E-2     1.02744531E-1    -3.48909865E-1    -5.84918987E-1    -1.30688879E+1     2.03785211E+0     2.16982806E+0   
                    1.80000000E+2     1.00000000E+1     6.15258666E-2     1.03142709E-1    -3.48930529E-1    -5.84951373E-1    -1.30352828E+1     2.03834181E+0     2.17131263E+0   
                    0.00000000E+0     1.50000000E+1    -9.17031572E-2    -1.53732024E-1    -3.42240842E-1    -5.73735724E-1    -9.56876270E+0     1.87018825E+0     2.17131268E+0   
                    5.00000000E+0     1.50000000E+1    -9.13421836E-2    -1.53128232E-1    -3.42195828E-1    -5.73665311E-1    -9.60296430E+0     1.86910213E+0     2.16801612E+0   
                    1.00000000E+1     1.50000000E+1    -9.02628817E-2    -1.51322682E-1    -3.42062356E-1    -5.73456023E-1    -9.70604657E+0     1.86587521E+0     2.15821840E+0   
                    1.50000000E+1     1.50000000E+1    -8.84758851E-2    -1.48332885E-1    -3.41844570E-1    -5.73114256E-1    -9.87947117E+0     1.86060422E+0     2.14219671E+0   
                    2.00000000E+1     1.50000000E+1    -8.59986368E-2    -1.44187599E-1    -3.41549220E-1    -5.72650494E-1    -1.01257868E+1     1.85344779E+0     2.12040677E+0   
                    2.50000000E+1     1.50000000E+1    -8.28549854E-2    -1.38926204E-1    -3.41185433E-1    -5.72078999E-1    -1.04488148E+1     1.84462197E+0     2.09347257E+0   
                    3.00000000E+1     1.50000000E+1    -7.90746542E-2    -1.32597861E-1    -3.40764400E-1    -5.71417363E-1    -1.08539446E+1     1.83439373E+0     2.06217175E+0   
                    3.50000000E+1     1.50000000E+1    -7.46926157E-2    -1.25260501E-1    -3.40299018E-1    -5.70685937E-1    -1.13485875E+1     1.82307302E+0     2.02741661E+0   
                    4.00000000E+1     1.50000000E+1    -6.97484028E-2    -1.16979710E-1    -3.39803500E-1    -5.69907170E-1    -1.19428684E+1     1.81100325E+0     1.99023088E+0   
                    4.50000000E+1     1.50000000E+1    -6.42853896E-2    -1.07827556E-1    -3.39292942E-1    -5.69104878E-1    -1.26507001E+1     1.79855084E+0     1.95172240E+0   
                    5.00000000E+1     1.50000000E+1    -5.83500720E-2    -9.78814221E-2    -3.38782873E-1    -5.68303488E-1    -1.34915070E+1     1.78609404E+0     1.91305227E+0   
                    5.50000000E+1     1.50000000E+1    -5.19913811E-2    -8.72228963E-2    -3.38288785E-1    -5.67527290E-1    -1.44931135E+1     1.77401143E+0     1.87540081E+0   
                    6.00000000E+1     1.50000000E+1    -4.52600548E-2    -7.59367629E-2    -3.37825648E-1    -5.66799715E-1    -1.56968804E+1     1.76267042E+0     1.83993144E+0   
                    6.50000000E+1     1.50000000E+1    -3.82080948E-2    -6.41101196E-2    -3.37407452E-1    -5.66142653E-1    -1.71675696E+1     1.75241619E+0     1.80775323E+0   
                    7.00000000E+1     1.50000000E+1    -3.08883224E-2    -5.18316441E-2    -3.37046781E-1    -5.65575838E-1    -1.90143560E+1     1.74356123E+0     1.77988368E+0   
                    7.50000000E+1     1.50000000E+1    -2.33540397E-2    -3.91910146E-2    -3.36754440E-1    -5.65116286E-1    -2.14426505E+1     1.73637585E+0     1.75721305E+0   
                    8.00000000E+1     1.50000000E+1    -1.56587932E-2    -2.62784836E-2    -3.36539159E-1    -5.64777800E-1    -2.49144664E+1     1.73107991E+0     1.74047195E+0   
                    8.50000000E+1     1.50000000E+1    -7.85622555E-3    -1.31845917E-2    -3.36407355E-1    -5.64570557E-1    -3.09051949E+1     1.72783584E+0     1.73020374E+0   
                    9.00000000E+1     1.50000000E+1   -5.51875962E-18   -9.26185260E-18    -3.36362963E-1    -5.64500794E-1    -3.33972590E+2     1.72674336E+0     1.72674336E+0   
                    9.50000000E+1     1.50000000E+1     7.85622478E-3     1.31845928E-2    -3.36407322E-1    -5.64570602E-1    -3.09051947E+1     1.72783612E+0     1.73020402E+0   
                    1.00000000E+2     1.50000000E+1     1.56587917E-2     2.62784867E-2    -3.36539127E-1    -5.64777868E-1    -2.49144659E+1     1.73108046E+0     1.74047250E+0   
                    1.05000000E+2     1.50000000E+1     2.33540404E-2     3.91910185E-2    -3.36754451E-1    -5.65116344E-1    -2.14426498E+1     1.73637657E+0     1.75721377E+0   
                    1.10000000E+2     1.50000000E+1     3.08883283E-2     5.18316456E-2    -3.37046846E-1    -5.65575855E-1    -1.90143554E+1     1.74356185E+0     1.77988431E+0   
                    1.15000000E+2     1.50000000E+1     3.82081046E-2     6.41101157E-2    -3.37407539E-1    -5.66142618E-1    -1.71675694E+1     1.75241638E+0     1.80775342E+0   
                    1.20000000E+2     1.50000000E+1     4.52600607E-2     7.59367536E-2    -3.37825692E-1    -5.66799645E-1    -1.56968809E+1     1.76266994E+0     1.83993096E+0   
                    1.25000000E+2     1.50000000E+1     5.19913733E-2     8.72228865E-2    -3.38288734E-1    -5.67527226E-1    -1.44931146E+1     1.77401037E+0     1.87539975E+0   
                    1.30000000E+2     1.50000000E+1     5.83500471E-2     9.78814190E-2    -3.38782729E-1    -5.68303470E-1    -1.34915081E+1     1.78609287E+0     1.91305109E+0   
                    1.35000000E+2     1.50000000E+1     6.42853568E-2     1.07827565E-1    -3.39292769E-1    -5.69104923E-1    -1.26507007E+1     1.79855019E+0     1.95172175E+0   
                    1.40000000E+2     1.50000000E+1     6.97483823E-2     1.16979727E-1    -3.39803400E-1    -5.69907255E-1    -1.19428681E+1     1.81100354E+0     1.99023116E+0   
                    1.45000000E+2     1.50000000E+1     7.46926272E-2     1.25260515E-1    -3.40299071E-1    -5.70686005E-1    -1.13485864E+1     1.82307414E+0     2.02741773E+0   
                    1.50000000E+2     1.50000000E+1     7.90747026E-2     1.32597859E-1    -3.40764608E-1    -5.71417355E-1    -1.08539433E+1     1.83439503E+0     2.06217305E+0   
                    1.55000000E+2     1.50000000E+1     8.28550528E-2     1.38926177E-1    -3.41185711E-1    -5.72078890E-1    -1.04488141E+1     1.84462259E+0     2.09347320E+0   
                    1.60000000E+2     1.50000000E+1     8.59986885E-2     1.44187554E-1    -3.41549426E-1    -5.72650317E-1    -1.01257874E+1     1.85344718E+0     2.12040616E+0   
                    1.65000000E+2     1.50000000E+1     8.84758871E-2     1.48332843E-1    -3.41844577E-1    -5.73114095E-1    -9.87947293E+0     1.86060246E+0     2.14219495E+0   
                    1.70000000E+2     1.50000000E+1     9.02628203E-2     1.51322668E-1    -3.42062124E-1    -5.73455971E-1    -9.70604870E+0     1.86587307E+0     2.15821626E+0   
                    1.75000000E+2     1.50000000E+1     9.13420752E-2     1.53128262E-1    -3.42195422E-1    -5.73665422E-1    -9.60296577E+0     1.86910066E+0     2.16801466E+0   
                    1.80000000E+2     1.50000000E+1     9.17030415E-2     1.53732092E-1    -3.42240410E-1    -5.73735977E-1    -9.56876276E+0     1.87018819E+0     2.17131263E+0   
                    0.00000000E+0     2.00000000E+1    -1.21182454E-1    -2.03151390E-1    -3.32946055E-1    -5.58153858E-1    -7.14765362E+0     1.63102901E+0     2.17131268E+0   
                    5.00000000E+0     2.00000000E+1    -1.20693610E-1    -2.02334929E-1    -3.32869638E-1    -5.58034138E-1    -7.18266662E+0     1.62913149E+0     2.16555441E+0   
                    1.00000000E+1     2.00000000E+1    -1.19232794E-1    -1.99894675E-1    -3.32643005E-1    -5.57678495E-1    -7.28815866E+0     1.62349480E+0     2.14843247E+0   
                    1.50000000E+1     2.00000000E+1    -1.16816730E-1    -1.95857963E-1    -3.32273265E-1    -5.57097985E-1    -7.46551952E+0     1.61428756E+0     2.12040576E+0   
                    2.00000000E+1     2.00000000E+1    -1.13472705E-1    -1.90269455E-1    -3.31771994E-1    -5.56310671E-1    -7.71718036E+0     1.60178595E+0     2.08223128E+0   
                    2.50000000E+1     2.00000000E+1    -1.09237730E-1    -1.83189826E-1    -3.31154826E-1    -5.55341040E-1    -8.04680253E+0     1.58636588E+0     2.03495130E+0   
                    3.00000000E+1     2.00000000E+1    -1.04157446E-1    -1.74694031E-1    -3.30440919E-1    -5.54219197E-1    -8.45957804E+0     1.56849197E+0     1.97987448E+0   
                    3.50000000E+1     2.00000000E+1    -9.82848389E-2    -1.64869266E-1    -3.29652325E-1    -5.52979865E-1    -8.96268838E+0     1.54870386E+0     1.91855038E+0   
                    4.00000000E+1     2.00000000E+1    -9.16788564E-2    -1.53812738E-1    -3.28813282E-1    -5.51661235E-1    -9.56600317E+0     1.52760014E+0     1.85273664E+0   
                    4.50000000E+1     2.00000000E+1    -8.44029828E-2    -1.41629371E-1    -3.27949463E-1    -5.50303731E-1    -1.02831623E+1     1.50582030E+0     1.78435847E+0   
                    5.00000000E+1     2.00000000E+1    -7.65238628E-2    -1.28429603E-1    -3.27087178E-1    -5.48948718E-1    -1.11333072E+1     1.48402553E+0     1.71545995E+0   
                    5.50000000E+1     2.00000000E+1    -6.81100361E-2    -1.14327351E-1    -3.26252570E-1    -5.47637236E-1    -1.21439780E+1     1.46287861E+0     1.64814741E+0   
                    6.00000000E+1     2.00000000E+1    -5.92308453E-2    -9.94382645E-2    -3.25470820E-1    -5.46408773E-1    -1.33562588E+1     1.44302373E+0     1.58452547E+0   
                    6.50000000E+1     2.00000000E+1    -4.99555640E-2    -8.38783204E-2    -3.24765389E-1    -5.45300126E-1    -1.48346506E+1     1.42506686E+0     1.52662732E+0   