##File Type: Far field
##File Format: 6
##Source: DipPhiRot0
##Date: 2021-04-14 17:54:06
** File exported by POSTFEKO version 2019.1-353059 (x64)

#Configuration Name: StandardConfiguration1
#Request Name: FarField1
#Frequency: 1.00000000E+9
#Coordinate System: Spherical
#No. of Theta Samples: 25
#No. of Phi Samples: 57
#Result Type: Directivity
#No. of Header Lines: 1
#                 "Theta"           "Phi"             "Re(Etheta)"      "Im(Etheta)"      "Re(Ephi)"        "Im(Ephi)"        "Directivity(Theta)""Directivity(Phi)""Directivity(Total)"
                    3.00000000E+1     3.00000000E+1    -1.50962874E-1    -2.53334729E-1    -3.01925748E-1    -5.06669457E-1    -5.23248646E+0     7.88113453E-1     1.75721358E+0   
                    3.50000000E+1     3.00000000E+1    -1.42062508E-1    -2.38476442E-1    -3.00383163E-1    -5.04244990E-1    -5.75821243E+0     7.45709733E-1     1.62235295E+0   
                    4.00000000E+1     3.00000000E+1    -1.32127775E-1    -2.21876706E-1    -2.98745095E-1    -5.01670277E-1    -6.38568175E+0     7.00451463E-1     1.47633969E+0   
                    4.50000000E+1     3.00000000E+1    -1.21275108E-1    -2.03726051E-1    -2.97062132E-1    -4.99024872E-1    -7.12780804E+0     6.53704467E-1     1.32317236E+0   
                    5.00000000E+1     3.00000000E+1    -1.09621645E-1    -1.84216928E-1    -2.95385686E-1    -4.96389592E-1    -8.00297691E+0     6.06885698E-1     1.16725987E+0   
                    5.50000000E+1     3.00000000E+1    -9.72820673E-2    -1.63538671E-1    -2.93766397E-1    -4.93844011E-1    -9.03796593E+0     5.61420594E-1     1.01333286E+0   
                    6.00000000E+1     3.00000000E+1    -8.43660663E-2    -1.41873469E-1    -2.92252626E-1    -4.91464113E-1    -1.02731130E+1     5.18699475E-1     8.66320538E-1   
                    6.50000000E+1     3.00000000E+1    -7.09765760E-2    -1.19393516E-1    -2.90889076E-1    -4.89320161E-1    -1.17722130E+1     4.80034328E-1     7.31189036E-1   
                    7.00000000E+1     3.00000000E+1    -5.72088099E-2    -9.62594220E-2    -2.89715583E-1    -4.87474825E-1    -1.36435615E+1     4.46617398E-1     6.12741912E-1   
                    7.50000000E+1     3.00000000E+1    -4.31501002E-2    -7.26198615E-2    -2.88766099E-1    -4.85981585E-1    -1.60918050E+1     4.19482977E-1     5.15390204E-1   
                    8.00000000E+1     3.00000000E+1    -2.88804812E-2    -4.86123850E-2    -2.88067871E-1    -4.84883411E-1    -1.95783342E+1     3.99473731E-1     4.42907749E-1   
                    8.50000000E+1     3.00000000E+1    -1.44739109E-2    -2.43652400E-2    -2.87640818E-1    -4.84211738E-1    -2.55780796E+1     3.87212810E-1     3.98195426E-1   
                    9.00000000E+1     3.00000000E+1   -1.01637429E-17   -1.71101090E-17    -2.87497083E-1    -4.83985719E-1    -3.28648513E+2     3.83082865E-1     3.83082865E-1   
                    9.50000000E+1     3.00000000E+1     1.44739081E-2     2.43652423E-2    -2.87640762E-1    -4.84211783E-1    -2.55780794E+1     3.87212964E-1     3.98195581E-1   
                    1.00000000E+2     3.00000000E+1     2.88804740E-2     4.86123920E-2    -2.88067799E-1    -4.84883480E-1    -1.95783339E+1     3.99474085E-1     4.42908103E-1   
                    1.05000000E+2     3.00000000E+1     4.31500950E-2     7.26198706E-2    -2.88766064E-1    -4.85981646E-1    -1.60918044E+1     4.19483510E-1     5.15390736E-1   
                    1.10000000E+2     3.00000000E+1     5.72088156E-2     9.62594265E-2    -2.89715612E-1    -4.87474848E-1    -1.36435609E+1     4.46617921E-1     6.12742435E-1   
                    1.15000000E+2     3.00000000E+1     7.09765942E-2     1.19393509E-1    -2.90889151E-1    -4.89320132E-1    -1.17722128E+1     4.80034522E-1     7.31189230E-1   
                    1.20000000E+2     3.00000000E+1     8.43660849E-2     1.41873449E-1    -2.92252691E-1    -4.91464045E-1    -1.02731134E+1     5.18699085E-1     8.66320147E-1   
                    1.25000000E+2     3.00000000E+1     9.72820672E-2     1.63538648E-1    -2.93766397E-1    -4.93843939E-1    -9.03796686E+0     5.61419660E-1     1.01333192E+0   
                    1.30000000E+2     3.00000000E+1     1.09621615E-1     1.84216915E-1    -2.95385606E-1    -4.96389557E-1    -8.00297798E+0     6.06884630E-1     1.16725880E+0   
                    1.35000000E+2     3.00000000E+1     1.21275059E-1     2.03726060E-1    -2.97062014E-1    -4.99024895E-1    -7.12780864E+0     6.53703859E-1     1.32317176E+0   
                    1.40000000E+2     3.00000000E+1     1.32127741E-1     2.21876736E-1    -2.98745017E-1    -5.01670345E-1    -6.38568148E+0     7.00451735E-1     1.47633997E+0   
                    1.45000000E+2     3.00000000E+1     1.42062522E-1     2.38476474E-1    -3.00383193E-1    -5.04245058E-1    -5.75821134E+0     7.45710820E-1     1.62235403E+0   
                    1.50000000E+2     3.00000000E+1     1.50962948E-1     2.53334736E-1    -3.01925896E-1    -5.06669473E-1    -5.23248515E+0     7.88114764E-1     1.75721489E+0   
                    3.00000000E+1     3.50000000E+1    -1.72292680E-1    -2.89223099E-1    -2.84124977E-1    -4.76952975E-1    -4.08246334E+0     2.62388387E-1     1.62235384E+0   
                    3.50000000E+1     3.50000000E+1    -1.61870564E-1    -2.71844985E-1    -2.82212716E-1    -4.73947267E-1    -4.62167719E+0     2.06496787E-1     1.44171368E+0   
                    4.00000000E+1     3.50000000E+1    -1.50288160E-1    -2.52510413E-1    -2.80184444E-1    -4.70758905E-1    -5.26357014E+0     1.46814887E-1     1.24501018E+0   
                    4.50000000E+1     3.50000000E+1    -1.37694837E-1    -2.31462805E-1    -2.78103127E-1    -4.67486881E-1    -6.02062490E+0     8.51394133E-2     1.03733974E+0   
                    5.00000000E+1     3.50000000E+1    -1.24237989E-1    -2.08943422E-1    -2.76032445E-1    -4.64231306E-1    -6.91077638E+0     2.33380466E-2     8.24464323E-1   
                    5.50000000E+1     3.50000000E+1    -1.10058558E-1    -1.85184253E-1    -2.74034810E-1    -4.61090284E-1    -7.96034484E+0    -3.67065060E-2     6.12740253E-1   
                    6.00000000E+1     3.50000000E+1    -9.52875767E-2    -1.60402511E-1    -2.72169525E-1    -4.58157051E-1    -9.20921847E+0    -9.31541984E-2     4.08990368E-1   
                    6.50000000E+1     3.50000000E+1    -8.00438739E-2    -1.34796939E-1    -2.70491148E-1    -4.55517420E-1    -1.07207645E+1    -1.44265298E-1     2.20302654E-1   
                    7.00000000E+1     3.50000000E+1    -6.44330018E-2    -1.08546036E-1    -2.69048081E-1    -4.53247587E-1    -1.26028867E+1    -1.88456070E-1     5.37443785E-2   
                    7.50000000E+1     3.50000000E+1    -4.85473572E-2    -8.18081195E-2    -2.67881412E-1    -4.51412309E-1    -1.50598903E+1    -2.24350504E-1    -8.40063803E-2   
                    8.00000000E+1     3.50000000E+1    -3.24673860E-2    -5.47231060E-2    -2.67024009E-1    -4.50063432E-1    -1.85528859E+1    -2.50826149E-1    -1.87089737E-1   
                    8.50000000E+1     3.50000000E+1    -1.62637139E-2    -2.74157432E-2    -2.66499830E-1    -4.49238773E-1    -2.45565964E+1    -2.67052211E-1    -2.50907792E-1   
                    9.00000000E+1     3.50000000E+1   -1.14187101E-17   -1.92493724E-17    -2.66323451E-1    -4.48961331E-1    -3.27628365E+2    -2.72518238E-1    -2.72518238E-1   
                    9.50000000E+1     3.50000000E+1     1.62637108E-2     2.74157458E-2    -2.66499779E-1    -4.49238817E-1    -2.45565962E+1    -2.67052025E-1    -2.50907606E-1   
                    1.00000000E+2     3.50000000E+1     3.24673780E-2     5.47231143E-2    -2.67023944E-1    -4.50063500E-1    -1.85528855E+1    -2.50825742E-1    -1.87089329E-1   
                    1.05000000E+2     3.50000000E+1     4.85473516E-2     8.18081304E-2    -2.67881382E-1    -4.51412369E-1    -1.50598897E+1    -2.24349909E-1    -8.40057848E-2   
                    1.10000000E+2     3.50000000E+1     6.44330091E-2     1.08546041E-1    -2.69048111E-1    -4.53247611E-1    -1.26028862E+1    -1.88455487E-1     5.37449621E-2   
                    1.15000000E+2     3.50000000E+1     8.00438960E-2     1.34796931E-1    -2.70491223E-1    -4.55517393E-1    -1.07207642E+1    -1.44265052E-1     2.20302901E-1   
                    1.20000000E+2     3.50000000E+1     9.52876006E-2     1.60402488E-1    -2.72169594E-1    -4.58156986E-1    -9.20921882E+0    -9.31545422E-2     4.08990024E-1   
                    1.25000000E+2     3.50000000E+1     1.10058562E-1     1.85184225E-1    -2.74034820E-1    -4.61090215E-1    -7.96034573E+0    -3.67073988E-2     6.12739361E-1   
                    1.30000000E+2     3.50000000E+1     1.24237959E-1     2.08943406E-1    -2.76032380E-1    -4.64231270E-1    -6.91077741E+0     2.33370126E-2     8.24463289E-1   
                    1.35000000E+2     3.50000000E+1     1.37694786E-1     2.31462815E-1    -2.78103024E-1    -4.67486900E-1    -6.02062549E+0     8.51388284E-2     1.03733916E+0   
                    1.40000000E+2     3.50000000E+1     1.50288122E-1     2.52510447E-1    -2.80184373E-1    -4.70758968E-1    -5.26356986E+0     1.46815168E-1     1.24501046E+0   
                    1.45000000E+2     3.50000000E+1     1.61870577E-1     2.71845023E-1    -2.82212738E-1    -4.73947334E-1    -4.62167610E+0     2.06497875E-1     1.44171477E+0   
                    1.50000000E+2     3.50000000E+1     1.72292757E-1     2.89223113E-1    -2.84125103E-1    -4.76952998E-1    -4.08246202E+0     2.62389709E-1     1.62235517E+0   
                    3.00000000E+1     4.00000000E+1    -1.92029602E-1    -3.22467552E-1    -2.64255490E-1    -4.43753568E-1    -3.13819687E+0    -3.65080103E-1     1.47634143E+0   
                    3.50000000E+1     4.00000000E+1    -1.80099074E-1    -3.02598042E-1    -2.62019390E-1    -4.40238544E-1    -3.69183429E+0    -4.35395285E-1     1.24501107E+0   
                    4.00000000E+1     4.00000000E+1    -1.66900168E-1    -2.80586063E-1    -2.59650568E-1    -4.36514424E-1    -4.34916647E+0    -5.10516404E-1     9.91445855E-1   
                    4.50000000E+1     4.00000000E+1    -1.52618881E-1    -2.56733683E-1    -2.57222961E-1    -4.32697433E-1    -5.12221727E+0    -5.88187917E-1     7.21720642E-1   
                    5.00000000E+1     4.00000000E+1    -1.37435566E-1    -2.31335167E-1    -2.54810963E-1    -4.28904529E-1    -6.02843972E+0    -6.66060256E-1     4.42907064E-1   
                    5.50000000E+1     4.00000000E+1    -1.21518952E-1    -2.04667507E-1    -2.52487095E-1    -4.25249751E-1    -7.09366315E+0    -7.41759782E-1     1.63070746E-1   
                    6.00000000E+1     4.00000000E+1    -1.05021669E-1    -1.76983280E-1    -2.50319902E-1    -4.21840919E-1    -8.35729091E+0    -8.12961597E-1    -1.08806959E-1   
                    6.50000000E+1     4.00000000E+1    -8.80774278E-2    -1.48506126E-1    -2.48372114E-1    -4.18776766E-1    -9.88222717E+0    -8.77462957E-1    -3.63025991E-1   
                    7.00000000E+1     4.00000000E+1    -7.07999264E-2    -1.19428895E-1    -2.46699115E-1    -4.16144538E-1    -1.17759505E+1    -9.33254767E-1    -5.89526704E-1   
                    7.50000000E+1     4.00000000E+1    -5.32833817E-2    -8.99143559E-2    -2.45347716E-1    -4.14018051E-1    -1.42423933E+1    -9.78588500E-1    -7.78437461E-1   
                    8.00000000E+1     4.00000000E+1    -3.56045400E-2    -6.00982155E-2    -2.44355219E-1    -4.12456181E-1    -1.77423606E+1    -1.01203585E+0    -9.20796563E-1   
                    8.50000000E+1     4.00000000E+1    -1.78259180E-2    -3.00940898E-2    -2.43748732E-1    -4.11501738E-1    -2.37503478E+1    -1.03253853E+0    -1.00937287E+0   
                    9.00000000E+1     4.00000000E+1   -1.25133356E-17   -2.11264785E-17    -2.43544713E-1    -4.11180703E-1    -3.26823558E+2    -1.03944587E+0    -1.03944587E+0   
                    9.50000000E+1     4.00000000E+1     1.78259148E-2     3.00940928E-2    -2.43748689E-1    -4.11501779E-1    -2.37503475E+1    -1.03253830E+0    -1.00937264E+0   
                    1.00000000E+2     4.00000000E+1     3.56045320E-2     6.00982246E-2    -2.44355164E-1    -4.12456244E-1    -1.77423602E+1    -1.01203537E+0    -9.20796085E-1   
                    1.05000000E+2     4.00000000E+1     5.32833769E-2     8.99143681E-2    -2.45347694E-1    -4.14018107E-1    -1.42423926E+1    -9.78587834E-1    -7.78436796E-1   
                    1.10000000E+2     4.00000000E+1     7.07999358E-2     1.19428901E-1    -2.46699148E-1    -4.16144559E-1    -1.17759498E+1    -9.33254133E-1    -5.89526070E-1   
                    1.15000000E+2     4.00000000E+1     8.80774535E-2     1.48506117E-1    -2.48372186E-1    -4.18776741E-1    -9.88222689E+0    -8.77462682E-1    -3.63025716E-1   
                    1.20000000E+2     4.00000000E+1     1.05021696E-1     1.76983254E-1    -2.50319968E-1    -4.21840858E-1    -8.35729123E+0    -8.12961924E-1    -1.08807286E-1   
                    1.25000000E+2     4.00000000E+1     1.21518959E-1     2.04667476E-1    -2.52487108E-1    -4.25249686E-1    -7.09366402E+0    -7.41760656E-1     1.63069873E-1   
                    1.30000000E+2     4.00000000E+1     1.37435536E-1     2.31335149E-1    -2.54810908E-1    -4.28904494E-1    -6.02844072E+0    -6.66061264E-1     4.42906057E-1   
                    1.35000000E+2     4.00000000E+1     1.52618827E-1     2.56733693E-1    -2.57222870E-1    -4.32697449E-1    -5.12221783E+0    -5.88188476E-1     7.21720083E-1   
                    1.40000000E+2     4.00000000E+1     1.66900126E-1     2.80586101E-1    -2.59650503E-1    -4.36514483E-1    -4.34916617E+0    -5.10516106E-1     9.91446152E-1   
                    1.45000000E+2     4.00000000E+1     1.80099085E-1     3.02598087E-1    -2.62019406E-1    -4.40238610E-1    -3.69183320E+0    -4.35394192E-1     1.24501216E+0   
                    1.50000000E+2     4.00000000E+1     1.92029679E-1     3.22467573E-1    -2.64255596E-1    -4.43753597E-1    -3.13819553E+0    -3.65078770E-1     1.47634276E+0   
                    3.00000000E+1     4.50000000E+1    -2.10054604E-1    -3.52864016E-1    -2.42550164E-1    -4.07452269E-1    -2.35659333E+0    -1.10720597E+0     1.32317452E+0   
                    3.50000000E+1     4.50000000E+1    -1.96648595E-1    -3.30563224E-1    -2.40063608E-1    -4.03543184E-1    -2.92515913E+0    -1.19244952E+0     1.03734116E+0   
                    4.00000000E+1     4.50000000E+1    -1.81884105E-1    -3.05963315E-1    -2.37432836E-1    -3.99406741E-1    -3.59848728E+0    -1.28356661E+0     7.21721240E-1   
                    4.50000000E+1     4.50000000E+1    -1.65986535E-1    -2.79429304E-1    -2.34740408E-1    -3.95172711E-1    -4.38812903E+0    -1.37782908E+0     3.83083513E-1   
                    5.00000000E+1     4.50000000E+1    -1.49171052E-1    -2.51311331E-1    -2.32068961E-1    -3.90971025E-1    -5.31103888E+0    -1.47238882E+0     2.95734407E-2   
                    5.50000000E+1     4.50000000E+1    -1.31634994E-1    -2.21932612E-1    -2.29498608E-1    -3.86927702E-1    -6.39253600E+0    -1.56436202E+0    -3.29145128E-1   
                    6.00000000E+1     4.50000000E+1    -1.13552326E-1    -1.91580623E-1    -2.27104652E-1    -3.83161246E-1    -7.67151762E+0    -1.65091771E+0    -6.81817575E-1   
                    6.50000000E+1     4.50000000E+1    -9.50703568E-2    -1.60501794E-1    -2.24955629E-1    -3.79779599E-1    -9.21040255E+0    -1.72936773E+0    -1.01568054E+0   
                    7.00000000E+1     4.50000000E+1    -7.63087093E-2    -1.28899751E-1    -2.23111740E-1    -3.76877659E-1    -1.11162216E+1    -1.79725532E+0    -1.31680999E+0   
                    7.50000000E+1     4.50000000E+1    -5.73604163E-2    -9.69368790E-2    -2.21623630E-1    -3.74535340E-1    -1.35925138E+1    -1.85243845E+0    -1.57084595E+0   
                    8.00000000E+1     4.50000000E+1    -3.82948916E-2    -6.47388404E-2    -2.20531491E-1    -3.72816123E-1    -1.70997602E+1    -1.89316476E+0    -1.76414454E+0   
                    8.50000000E+1     4.50000000E+1    -1.91624485E-2    -3.24015437E-2    -2.19864439E-1    -3.71766021E-1    -2.31122142E+1    -1.91813439E+0    -1.88526951E+0   
                    9.00000000E+1     4.50000000E+1   -1.34490776E-17   -2.27424804E-17    -2.19640106E-1    -3.71412891E-1    -3.26186930E+2    -1.92654750E+0    -1.92654750E+0   
                    9.50000000E+1     4.50000000E+1     1.91624455E-2     3.24015468E-2    -2.19864404E-1    -3.71766057E-1    -2.31122140E+1    -1.91813412E+0    -1.88526924E+0   
                    1.00000000E+2     4.50000000E+1     3.82948841E-2     6.47388502E-2    -2.20531448E-1    -3.72816180E-1    -1.70997596E+1    -1.89316423E+0    -1.76414401E+0   
                    1.05000000E+2     4.50000000E+1     5.73604125E-2     9.69368919E-2    -2.21623615E-1    -3.74535390E-1    -1.35925131E+1    -1.85243774E+0    -1.57084525E+0   
                    1.10000000E+2     4.50000000E+1     7.63087203E-2     1.28899757E-1    -2.23111772E-1    -3.76877677E-1    -1.11162210E+1    -1.79725468E+0    -1.31680934E+0   
                    1.15000000E+2     4.50000000E+1     9.50703842E-2     1.60501784E-1    -2.24955694E-1    -3.79779576E-1    -9.21040229E+0    -1.72936748E+0    -1.01568028E+0   
                    1.20000000E+2     4.50000000E+1     1.13552355E-1     1.91580595E-1    -2.27104709E-1    -3.83161191E-1    -7.67151797E+0    -1.65091806E+0    -6.81817927E-1   
                    1.25000000E+2     4.50000000E+1     1.31635000E-1     2.21932578E-1    -2.29498619E-1    -3.86927643E-1    -6.39253688E+0    -1.56436290E+0    -3.29146007E-1   
                    1.30000000E+2     4.50000000E+1     1.49171021E-1     2.51311311E-1    -2.32068912E-1    -3.90970994E-1    -5.31103987E+0    -1.47238981E+0     2.95724525E-2   
                    1.35000000E+2     4.50000000E+1     1.65986478E-1     2.79429314E-1    -2.34740328E-1    -3.95172726E-1    -4.38812956E+0    -1.37782960E+0     3.83082986E-1   
                    1.40000000E+2     4.50000000E+1     1.81884060E-1     3.05963356E-1    -2.37432778E-1    -3.99406795E-1    -3.59848696E+0    -1.28356629E+0     7.21721560E-1   
                    1.45000000E+2     4.50000000E+1     1.96648605E-1     3.30563275E-1    -2.40063620E-1    -4.03543246E-1    -2.92515803E+0    -1.19244842E+0     1.03734226E+0   
                    1.50000000E+2     4.50000000E+1     2.10054681E-1     3.52864044E-1    -2.42550253E-1    -4.07452301E-1    -2.35659199E+0    -1.10720463E+0     1.32317586E+0   
                    3.00000000E+1     5.00000000E+1    -2.26278543E-1    -3.80256618E-1    -2.19243270E-1    -3.68433982E-1    -1.70803299E+0    -1.98237502E+0     1.16726185E+0   
                    3.50000000E+1     5.00000000E+1    -2.11453133E-1    -3.55621882E-1    -2.16602336E-1    -3.64281811E-1    -2.29158123E+0    -2.08260101E+0     8.24465720E-1   
                    4.00000000E+1     5.00000000E+1    -1.95196550E-1    -3.28559951E-1    -2.13811815E-1    -3.59893654E-1    -2.98098021E+0    -2.18978894E+0     4.42907778E-1   
                    4.50000000E+1     5.00000000E+1    -1.77775159E-1    -2.99501177E-1    -2.10959751E-1    -3.55407888E-1    -3.78730930E+0    -2.30073874E+0     2.95736298E-2   
                    5.00000000E+1     5.00000000E+1    -1.59439743E-1    -2.68852770E-1    -2.08133803E-1    -3.50962365E-1    -4.72702294E+0    -2.41210227E+0    -4.06814421E-1   
                    5.50000000E+1     5.00000000E+1    -1.40416232E-1    -2.36984084E-1    -2.05418495E-1    -3.46690074E-1    -5.82492625E+0    -2.52048168E+0    -8.55420648E-1   
                    6.00000000E+1     5.00000000E+1    -1.20899124E-1    -2.04216150E-1    -2.02892820E-1    -3.42715393E-1    -7.11940419E+0    -2.62253367E+0    -1.30291907E+0   
                    6.50000000E+1     5.00000000E+1    -1.01047805E-1    -1.70815717E-1    -2.00628282E-1    -3.39150998E-1    -8.67238203E+0    -2.71507661E+0    -1.73324357E+0   
                    7.00000000E+1     5.00000000E+1    -8.09857065E-2    -1.36993754E-1    -1.98687351E-1    -3.36095435E-1    -1.05904335E+1    -2.79519659E+0    -2.12768667E+0   
                    7.50000000E+1     5.00000000E+1    -6.08020926E-2    -1.02908081E-1    -1.97122331E-1    -3.33631295E-1    -1.30766943E+1    -2.86034835E+0    -2.46564998E+0   
                    8.00000000E+1     5.00000000E+1    -4.05561186E-2    -6.86695775E-2    -1.95974554E-1    -3.31823909E-1    -1.65913124E+1    -2.90844639E+0    -2.72632547E+0   
                    8.50000000E+1     5.00000000E+1    -2.02827383E-2    -3.43513301E-2    -1.95273860E-1    -3.30720472E-1    -2.26082923E+1    -2.93794185E+0    -2.89133851E+0   
                    9.00000000E+1     5.00000000E+1   -1.42326959E-17   -2.41068781E-17    -1.95038274E-1    -3.30349494E-1    -3.25684534E+2    -2.94788093E+0    -2.94788093E+0   
                    9.50000000E+1     5.00000000E+1     2.02827355E-2     3.43513333E-2    -1.95273832E-1    -3.30720504E-1    -2.26082920E+1    -2.93794155E+0    -2.89133822E+0   
                    1.00000000E+2     5.00000000E+1     4.05561118E-2     6.86695874E-2    -1.95974521E-1    -3.31823957E-1    -1.65913118E+1    -2.90844583E+0    -2.72632491E+0   
                    1.05000000E+2     5.00000000E+1     6.08020897E-2     1.02908094E-1    -1.97122322E-1    -3.33631337E-1    -1.30766936E+1    -2.86034765E+0    -2.46564927E+0   
                    1.10000000E+2     5.00000000E+1     8.09857178E-2     1.36993761E-1    -1.98687379E-1    -3.36095450E-1    -1.05904329E+1    -2.79519600E+0    -2.12768608E+0   
                    1.15000000E+2     5.00000000E+1     1.01047831E-1     1.70815706E-1    -2.00628334E-1    -3.39150976E-1    -8.67238184E+0    -2.71507643E+0    -1.73324338E+0   
                    1.20000000E+2     5.00000000E+1     1.20899150E-1     2.04216121E-1    -2.02892865E-1    -3.42715344E-1    -7.11940460E+0    -2.62253408E+0    -1.30291948E+0   
                    1.25000000E+2     5.00000000E+1     1.40416234E-1     2.36984049E-1    -2.05418499E-1    -3.46690023E-1    -5.82492715E+0    -2.52048258E+0    -8.55421549E-1   
                    1.30000000E+2     5.00000000E+1     1.59439709E-1     2.68852750E-1    -2.08133758E-1    -3.50962339E-1    -4.72702391E+0    -2.41210324E+0    -4.06815390E-1   
                    1.35000000E+2     5.00000000E+1     1.77775100E-1     2.99501190E-1    -2.10959680E-1    -3.55407902E-1    -3.78730979E+0    -2.30073923E+0     2.95731397E-2   
                    1.40000000E+2     5.00000000E+1     1.95196505E-1     3.28559995E-1    -2.13811766E-1    -3.59893702E-1    -2.98097987E+0    -2.18978859E+0     4.42908123E-1   
                    1.45000000E+2     5.00000000E+1     2.11453143E-1     3.55621937E-1    -2.16602346E-1    -3.64281867E-1    -2.29158012E+0    -2.08259991E+0     8.24466821E-1   
                    1.50000000E+2     5.00000000E+1     2.26278620E-1     3.80256651E-1    -2.19243345E-1    -3.68434014E-1    -1.70803166E+0    -1.98237369E+0     1.16726318E+0   
                    3.00000000E+1     5.50000000E+1    -2.40639360E-1    -4.04533402E-1    -1.94564146E-1    -3.27077400E-1    -1.17128776E+0    -3.01736475E+0     1.01333412E+0   
                    3.50000000E+1     5.50000000E+1    -2.24476220E-1    -3.77703073E-1    -1.91881279E-1    -3.22858913E-1    -1.76941526E+0    -3.13217001E+0     6.12741112E-1   
                    4.00000000E+1     5.50000000E+1    -2.06825379E-1    -3.48344187E-1    -1.89049983E-1    -3.18406102E-1    -2.47446905E+0    -3.25501274E+0     1.63071092E-1   
                    4.50000000E+1     5.50000000E+1    -1.87994304E-1    -3.16952586E-1    -1.86160043E-1    -3.13860079E-1    -3.29707169E+0    -3.38223609E+0    -3.29145178E-1   
                    5.00000000E+1     5.50000000E+1    -1.68269005E-1    -2.83991861E-1    -1.83300400E-1    -3.09360726E-1    -4.25319146E+0    -3.51000576E+0    -8.55420820E-1   
                    5.50000000E+1     5.50000000E+1    -1.47903105E-1    -2.49876017E-1    -1.80556352E-1    -3.05042292E-1    -5.36713139E+0    -3.63442178E+0    -1.40463110E+0   
                    6.00000000E+1     5.50000000E+1    -1.27110301E-1    -2.14957456E-1    -1.78007182E-1    -3.01029662E-1    -6.67677371E+0    -3.75163816E+0    -1.96215147E+0   
                    6.50000000E+1     5.50000000E+1    -1.06060383E-1    -1.79520514E-1    -1.75724256E-1    -2.97435365E-1    -8.24355724E+0    -3.85798679E+0    -2.50893130E+0   
                    7.00000000E+1     5.50000000E+1    -8.48786989E-2    -1.43780415E-1    -1.73769604E-1    -2.94357314E-1    -1.01736033E+1    -3.95010131E+0    -3.02083030E+0   
                    7.50000000E+1     5.50000000E+1    -6.36487289E-2    -1.07887115E-1    -1.72194901E-1    -2.91877172E-1    -1.26696468E+1    -4.02503580E+0    -3.46885327E+0   
                    8.00000000E+1     5.50000000E+1    -4.24173178E-2    -7.19333351E-2    -1.71040814E-1    -2.90059269E-1    -1.61915038E+1    -4.08037272E+0    -3.82116591E+0   
                    8.50000000E+1     5.50000000E+1    -2.12020182E-2    -3.59659724E-2    -1.70336601E-1    -2.88949921E-1    -2.22129299E+1    -4.11431440E+0    -4.04754461E+0   
                    9.00000000E+1     5.50000000E+1   -1.48750389E-17   -2.52357288E-17    -1.70099891E-1    -2.88577042E-1    -3.25290671E+2    -4.12575296E+0    -4.12575296E+0   
                    9.50000000E+1     5.50000000E+1     2.12020156E-2     3.59659757E-2    -1.70336580E-1    -2.88949948E-1    -2.22129296E+1    -4.11431410E+0    -4.04754431E+0   
                    1.00000000E+2     5.50000000E+1     4.24173116E-2     7.19333450E-2    -1.71040789E-1    -2.90059309E-1    -1.61915032E+1    -4.08037215E+0    -3.82116534E+0   
                    1.05000000E+2     5.50000000E+1     6.36487263E-2     1.07887127E-1    -1.72194894E-1    -2.91877206E-1    -1.26696462E+1    -4.02503513E+0    -3.46885260E+0   
                    1.10000000E+2     5.50000000E+1     8.48787091E-2     1.43780421E-1    -1.73769625E-1    -2.94357326E-1    -1.01736027E+1    -3.95010078E+0    -3.02082977E+0   
                    1.15000000E+2     5.50000000E+1     1.06060406E-1     1.79520503E-1    -1.75724295E-1    -2.97435347E-1    -8.24355714E+0    -3.85798669E+0    -2.50893120E+0   
                    1.20000000E+2     5.50000000E+1     1.27110322E-1     2.14957427E-1    -1.78007212E-1    -3.01029621E-1    -6.67677419E+0    -3.75163864E+0    -1.96215195E+0   
                    1.25000000E+2     5.50000000E+1     1.47903103E-1     2.49875983E-1    -1.80556349E-1    -3.05042250E-1    -5.36713231E+0    -3.63442270E+0    -1.40463202E+0   
                    1.30000000E+2     5.50000000E+1     1.68268967E-1     2.83991842E-1    -1.83300358E-1    -3.09360706E-1    -4.25319240E+0    -3.51000670E+0    -8.55421759E-1   
                    1.35000000E+2     5.50000000E+1     1.87994244E-1     3.16952600E-1    -1.86159984E-1    -3.13860092E-1    -3.29707213E+0    -3.38223653E+0    -3.29145622E-1   
                    1.40000000E+2     5.50000000E+1     2.06825336E-1     3.48344232E-1    -1.89049944E-1    -3.18406144E-1    -2.47446868E+0    -3.25501237E+0     1.63071461E-1   
                    1.45000000E+2     5.50000000E+1     2.24476233E-1     3.77703129E-1    -1.91881290E-1    -3.22858961E-1    -1.76941417E+0    -3.13216892E+0     6.12742198E-1   
                    1.50000000E+2     5.50000000E+1     2.40639438E-1     4.04533438E-1    -1.94564210E-1    -3.27077429E-1    -1.17128645E+0    -3.01736345E+0     1.01333542E+0   
                    3.00000000E+1     6.00000000E+1    -2.53098239E-1    -4.25620402E-1    -1.68732160E-1    -2.83746935E-1    -7.30687598E-1    -4.25251278E+0     8.66320831E-1   
                    3.50000000E+1     6.00000000E+1    -2.35705791E-1    -3.96775608E-1    -1.66128868E-1    -2.79653217E-1    -1.34254151E+0    -4.38104445E+0     4.08990419E-1   
                    4.00000000E+1     6.00000000E+1    -2.16783473E-1    -3.65324888E-1    -1.63384772E-1    -2.75337057E-1    -2.06234926E+0    -4.51864114E+0    -1.08807256E-1   
                    4.50000000E+1     6.00000000E+1    -1.96678467E-1    -3.31827303E-1    -1.60587296E-1    -2.70935859E-1    -2.90030562E+0    -4.66121821E+0    -6.81818122E-1   
                    5.00000000E+1     6.00000000E+1    -1.75710381E-1    -2.96800184E-1    -1.57822637E-1    -2.66585204E-1    -3.87192161E+0    -4.80448409E+0    -1.30291964E+0   
                    5.50000000E+1     6.00000000E+1    -1.54158759E-1    -2.60699310E-1    -1.55173043E-1    -2.62414575E-1    -5.00102587E+0    -4.94406444E+0    -1.96215181E+0   
                    6.00000000E+1     6.00000000E+1    -1.32254688E-1    -2.23905508E-1    -1.52714559E-1    -2.58543810E-1    -6.32502355E+0    -5.07563619E+0    -2.64525570E+0   
                    6.50000000E+1     6.00000000E+1    -1.10176632E-1    -1.86717867E-1    -1.50515286E-1    -2.55080343E-1    -7.90488980E+0    -5.19506753E+0    -3.33166834E+0   
                    7.00000000E+1     6.00000000E+1    -8.80502896E-2    -1.49353277E-1    -1.48634106E-1    -2.52117183E-1    -9.84631285E+0    -5.29855909E+0    -3.99221991E+0   
                    7.50000000E+1     6.00000000E+1    -6.59520244E-2    -1.11951591E-1    -1.47119850E-1    -2.49731551E-1    -1.23516429E+1    -5.38278008E+0    -4.58748780E+0   
                    8.00000000E+1     6.00000000E+1    -4.39152930E-2    -7.45855282E-2    -1.46010782E-1    -2.47984029E-1    -1.58803758E+1    -5.44499299E+0    -5.06889134E+0   
                    8.50000000E+1     6.00000000E+1    -2.19394068E-2    -3.72743046E-2    -1.45334341E-1    -2.46918093E-1    -2.19060271E+1    -5.48315986E+0    -5.38530205E+0   