##File Type: Far field
##File Format: 6
##Source: DipPhiRot45sec
##Date: 2021-04-14 21:37:45
** File exported by POSTFEKO version 2019.1-353059 (x64)

#Configuration Name: StandardConfiguration1
#Request Name: FarField1
#Frequency: 1.00000000E+9
#Coordinate System: Spherical
#No. of Theta Samples: 25
#No. of Phi Samples: 57
#Result Type: Directivity
#No. of Header Lines: 1
#                 "Theta"           "Phi"             "Re(Etheta)"      "Im(Etheta)"      "Re(Ephi)"        "Im(Ephi)"        "Directivity(Theta)""Directivity(Phi)""Directivity(Total)"
                    3.00000000E+1     7.50000000E+1    -1.50962872E-1    -2.53334615E-1    -3.01925744E-1    -5.06669229E-1    -5.23248830E+0     7.88111610E-1     1.75721174E+0   
                    3.50000000E+1     7.50000000E+1    -1.42062481E-1    -2.38476383E-1    -3.00383106E-1    -5.04244865E-1    -5.75821338E+0     7.45708779E-1     1.62235199E+0   
                    4.00000000E+1     7.50000000E+1    -1.32127738E-1    -2.21876690E-1    -2.98745010E-1    -5.01670240E-1    -6.38568181E+0     7.00451408E-1     1.47633964E+0   
                    4.50000000E+1     7.50000000E+1    -1.21275077E-1    -2.03726050E-1    -2.97062057E-1    -4.99024870E-1    -7.12780756E+0     6.53704942E-1     1.32317284E+0   
                    5.00000000E+1     7.50000000E+1    -1.09621632E-1    -1.84216917E-1    -2.95385652E-1    -4.96389562E-1    -8.00297649E+0     6.06886122E-1     1.16726029E+0   
                    5.50000000E+1     7.50000000E+1    -9.72820722E-2    -1.63538637E-1    -2.93766412E-1    -4.93843907E-1    -9.03796609E+0     5.61420430E-1     1.01333269E+0   
                    6.00000000E+1     7.50000000E+1    -8.43660792E-2    -1.41873415E-1    -2.92252671E-1    -4.91463927E-1    -1.02731140E+1     5.18698467E-1     8.66319529E-1   
                    6.50000000E+1     7.50000000E+1    -7.09765858E-2    -1.19393459E-1    -2.90889117E-1    -4.89319926E-1    -1.17722147E+1     4.80032635E-1     7.31187343E-1   
                    7.00000000E+1     7.50000000E+1    -5.72088108E-2    -9.62593775E-2    -2.89715588E-1    -4.87474600E-1    -1.36435633E+1     4.46615539E-1     6.12740053E-1   
                    7.50000000E+1     7.50000000E+1    -4.31500944E-2    -7.26198372E-2    -2.88766060E-1    -4.85981422E-1    -1.60918063E+1     4.19481592E-1     5.15388819E-1   
                    8.00000000E+1     7.50000000E+1    -2.88804745E-2    -4.86123772E-2    -2.88067804E-1    -4.84883333E-1    -1.95783347E+1     3.99473247E-1     4.42907265E-1   
                    8.50000000E+1     7.50000000E+1    -1.44739078E-2    -2.43652392E-2    -2.87640755E-1    -4.84211722E-1    -2.55780792E+1     3.87213181E-1     3.98195798E-1   
                    9.00000000E+1     7.50000000E+1   -1.01637417E-17   -1.71101087E-17    -2.87497049E-1    -4.83985710E-1    -3.28648512E+2     3.83083552E-1     3.83083552E-1   
                    9.50000000E+1     7.50000000E+1     1.44739081E-2     2.43652391E-2    -2.87640761E-1    -4.84211719E-1    -2.55780792E+1     3.87213186E-1     3.98195803E-1   
                    1.00000000E+2     7.50000000E+1     2.88804755E-2     4.86123767E-2    -2.88067813E-1    -4.84883328E-1    -1.95783347E+1     3.99473254E-1     4.42907272E-1   
                    1.05000000E+2     7.50000000E+1     4.31500951E-2     7.26198368E-2    -2.88766065E-1    -4.85981419E-1    -1.60918063E+1     4.19481597E-1     5.15388823E-1   
                    1.10000000E+2     7.50000000E+1     5.72088099E-2     9.62593780E-2    -2.89715584E-1    -4.87474603E-1    -1.36435633E+1     4.46615537E-1     6.12740051E-1   
                    1.15000000E+2     7.50000000E+1     7.09765819E-2     1.19393461E-1    -2.90889100E-1    -4.89319935E-1    -1.17722147E+1     4.80032625E-1     7.31187333E-1   
                    1.20000000E+2     7.50000000E+1     8.43660723E-2     1.41873419E-1    -2.92252647E-1    -4.91463940E-1    -1.02731140E+1     5.18698451E-1     8.66319513E-1   
                    1.25000000E+2     7.50000000E+1     9.72820646E-2     1.63538641E-1    -2.93766389E-1    -4.93843920E-1    -9.03796611E+0     5.61420413E-1     1.01333268E+0   
                    1.30000000E+2     7.50000000E+1     1.09621628E-1     1.84216919E-1    -2.95385640E-1    -4.96389568E-1    -8.00297650E+0     6.06886112E-1     1.16726028E+0   
                    1.35000000E+2     7.50000000E+1     1.21275080E-1     2.03726048E-1    -2.97062064E-1    -4.99024866E-1    -7.12780756E+0     6.53704944E-1     1.32317284E+0   
                    1.40000000E+2     7.50000000E+1     1.32127750E-1     2.21876683E-1    -2.98745038E-1    -5.01670224E-1    -6.38568179E+0     7.00451423E-1     1.47633965E+0   
                    1.45000000E+2     7.50000000E+1     1.42062500E-1     2.38476372E-1    -3.00383147E-1    -5.04244843E-1    -5.75821336E+0     7.45708802E-1     1.62235201E+0   
                    1.50000000E+2     7.50000000E+1     1.50962891E-1     2.53334604E-1    -3.01925782E-1    -5.06669209E-1    -5.23248828E+0     7.88111631E-1     1.75721176E+0   
                    3.00000000E+1     8.00000000E+1    -1.72292667E-1    -2.89222975E-1    -2.84124954E-1    -4.76952770E-1    -4.08246521E+0     2.62386517E-1     1.62235198E+0   
                    3.50000000E+1     8.00000000E+1    -1.61870526E-1    -2.71844916E-1    -2.82212650E-1    -4.73947149E-1    -4.62167825E+0     2.06495719E-1     1.44171262E+0   
                    4.00000000E+1     8.00000000E+1    -1.50288115E-1    -2.52510389E-1    -2.80184360E-1    -4.70758861E-1    -5.26357036E+0     1.46814675E-1     1.24500997E+0   
                    4.50000000E+1     8.00000000E+1    -1.37694804E-1    -2.31462798E-1    -2.78103060E-1    -4.67486867E-1    -6.02062457E+0     8.51397470E-2     1.03734008E+0   
                    5.00000000E+1     8.00000000E+1    -1.24237978E-1    -2.08943405E-1    -2.76032422E-1    -4.64231268E-1    -6.91077603E+0     2.33383979E-2     8.24464674E-1   
                    5.50000000E+1     8.00000000E+1    -1.10058567E-1    -1.85184213E-1    -2.74034833E-1    -4.61090183E-1    -7.96034499E+0    -3.67066528E-2     6.12740107E-1   
                    6.00000000E+1     8.00000000E+1    -9.52875940E-2    -1.60402451E-1    -2.72169575E-1    -4.58156880E-1    -9.20921939E+0    -9.31551160E-2     4.08989451E-1   
                    6.50000000E+1     8.00000000E+1    -8.00438862E-2    -1.34796876E-1    -2.70491190E-1    -4.55517207E-1    -1.07207661E+1    -1.44266879E-1     2.20301073E-1   
                    7.00000000E+1     8.00000000E+1    -6.44330032E-2    -1.08545987E-1    -2.69048087E-1    -4.53247382E-1    -1.26028885E+1    -1.88457860E-1     5.37425891E-2   
                    7.50000000E+1     8.00000000E+1    -4.85473506E-2    -8.18080918E-2    -2.67881376E-1    -4.51412156E-1    -1.50598917E+1    -2.24351918E-1    -8.40077944E-2   
                    8.00000000E+1     8.00000000E+1    -3.24673785E-2    -5.47230959E-2    -2.67023948E-1    -4.50063349E-1    -1.85528865E+1    -2.50826786E-1    -1.87090373E-1   
                    8.50000000E+1     8.00000000E+1    -1.62637105E-2    -2.74157411E-2    -2.66499774E-1    -4.49238740E-1    -2.45565963E+1    -2.67052096E-1    -2.50907677E-1   
                    9.00000000E+1     8.00000000E+1   -1.14187089E-17   -1.92493711E-17    -2.66323423E-1    -4.48961300E-1    -3.27628365E+2    -2.72517859E-1    -2.72517859E-1   
                    9.50000000E+1     8.00000000E+1     1.62637110E-2     2.74157409E-2    -2.66499782E-1    -4.49238735E-1    -2.45565963E+1    -2.67052088E-1    -2.50907669E-1   
                    1.00000000E+2     8.00000000E+1     3.24673800E-2     5.47230952E-2    -2.67023960E-1    -4.50063343E-1    -1.85528865E+1    -2.50826774E-1    -1.87090362E-1   
                    1.05000000E+2     8.00000000E+1     4.85473520E-2     8.18080911E-2    -2.67881384E-1    -4.51412152E-1    -1.50598917E+1    -2.24351909E-1    -8.40077856E-2   
                    1.10000000E+2     8.00000000E+1     6.44330024E-2     1.08545987E-1    -2.69048083E-1    -4.53247384E-1    -1.26028885E+1    -1.88457859E-1     5.37425895E-2   
                    1.15000000E+2     8.00000000E+1     8.00438811E-2     1.34796879E-1    -2.70491173E-1    -4.55517216E-1    -1.07207661E+1    -1.44266890E-1     2.20301063E-1   
                    1.20000000E+2     8.00000000E+1     9.52875846E-2     1.60402456E-1    -2.72169548E-1    -4.58156895E-1    -9.20921941E+0    -9.31551358E-2     4.08989431E-1   
                    1.25000000E+2     8.00000000E+1     1.10058556E-1     1.85184218E-1    -2.74034806E-1    -4.61090198E-1    -7.96034501E+0    -3.67066749E-2     6.12740084E-1   
                    1.30000000E+2     8.00000000E+1     1.24237971E-1     2.08943408E-1    -2.76032407E-1    -4.64231276E-1    -6.91077604E+0     2.33383826E-2     8.24464659E-1   
                    1.35000000E+2     8.00000000E+1     1.37694808E-1     2.31462796E-1    -2.78103068E-1    -4.67486863E-1    -6.02062457E+0     8.51397466E-2     1.03734008E+0   
                    1.40000000E+2     8.00000000E+1     1.50288133E-1     2.52510379E-1    -2.80184393E-1    -4.70758842E-1    -5.26357034E+0     1.46814693E-1     1.24500999E+0   
                    1.45000000E+2     8.00000000E+1     1.61870556E-1     2.71844900E-1    -2.82212701E-1    -4.73947120E-1    -4.62167822E+0     2.06495751E-1     1.44171265E+0   
                    1.50000000E+2     8.00000000E+1     1.72292699E-1     2.89222957E-1    -2.84125008E-1    -4.76952740E-1    -4.08246518E+0     2.62386550E-1     1.62235201E+0   
                    3.00000000E+1     8.50000000E+1    -1.92029574E-1    -3.22467420E-1    -2.64255452E-1    -4.43753387E-1    -3.13819874E+0    -3.65081980E-1     1.47633955E+0   
                    3.50000000E+1     8.50000000E+1    -1.80099024E-1    -3.02597966E-1    -2.62019317E-1    -4.40238434E-1    -3.69183546E+0    -4.35396452E-1     1.24500990E+0   
                    4.00000000E+1     8.50000000E+1    -1.66900115E-1    -2.80586032E-1    -2.59650486E-1    -4.36514375E-1    -4.34916683E+0    -5.10516768E-1     9.91445491E-1   
                    4.50000000E+1     8.50000000E+1    -1.52618846E-1    -2.56733668E-1    -2.57222902E-1    -4.32697408E-1    -5.12221708E+0    -5.88187729E-1     7.21720830E-1   
                    5.00000000E+1     8.50000000E+1    -1.37435558E-1    -2.31335143E-1    -2.54810947E-1    -4.28904484E-1    -6.02843945E+0    -6.66059986E-1     4.42907335E-1   
                    5.50000000E+1     8.50000000E+1    -1.21518966E-1    -2.04667461E-1    -2.52487123E-1    -4.25249655E-1    -7.09366328E+0    -7.41759911E-1     1.63070618E-1   
                    6.00000000E+1     8.50000000E+1    -1.05021690E-1    -1.76983215E-1    -2.50319953E-1    -4.21840765E-1    -8.35729171E+0    -8.12962403E-1    -1.08807765E-1   
                    6.50000000E+1     8.50000000E+1    -8.80774429E-2    -1.48506059E-1    -2.48372156E-1    -4.18776578E-1    -9.88222858E+0    -8.77464376E-1    -3.63027410E-1   
                    7.00000000E+1     8.50000000E+1    -7.07999288E-2    -1.19428843E-1    -2.46699123E-1    -4.16144357E-1    -1.17759521E+1    -9.33256411E-1    -5.89528348E-1   
                    7.50000000E+1     8.50000000E+1    -5.32833751E-2    -8.99143260E-2    -2.45347685E-1    -4.14017913E-1    -1.42423946E+1    -9.78589851E-1    -7.78438813E-1   
                    8.00000000E+1     8.50000000E+1    -3.56045323E-2    -6.00982035E-2    -2.44355166E-1    -4.12456099E-1    -1.77423613E+1    -1.01203654E+0    -9.20797257E-1   
                    8.50000000E+1     8.50000000E+1    -1.78259145E-2    -3.00940866E-2    -2.43748685E-1    -4.11501694E-1    -2.37503478E+1    -1.03253858E+0    -1.00937293E+0   
                    9.00000000E+1     8.50000000E+1   -1.25133345E-17   -2.11264761E-17    -2.43544691E-1    -4.11180657E-1    -3.26823558E+2    -1.03944572E+0    -1.03944572E+0   
                    9.50000000E+1     8.50000000E+1     1.78259154E-2     3.00940862E-2    -2.43748696E-1    -4.11501688E-1    -2.37503478E+1    -1.03253857E+0    -1.00937292E+0   
                    1.00000000E+2     8.50000000E+1     3.56045348E-2     6.00982022E-2    -2.44355183E-1    -4.12456090E-1    -1.77423613E+1    -1.01203653E+0    -9.20797239E-1   
                    1.05000000E+2     8.50000000E+1     5.32833780E-2     8.99143245E-2    -2.45347699E-1    -4.14017906E-1    -1.42423946E+1    -9.78589836E-1    -7.78438798E-1   
                    1.10000000E+2     8.50000000E+1     7.07999292E-2     1.19428843E-1    -2.46699125E-1    -4.16144357E-1    -1.17759521E+1    -9.33256406E-1    -5.89528343E-1   
                    1.15000000E+2     8.50000000E+1     8.80774376E-2     1.48506062E-1    -2.48372141E-1    -4.18776587E-1    -9.88222859E+0    -8.77464385E-1    -3.63027419E-1   
                    1.20000000E+2     8.50000000E+1     1.05021679E-1     1.76983222E-1    -2.50319925E-1    -4.21840780E-1    -8.35729173E+0    -8.12962425E-1    -1.08807787E-1   
                    1.25000000E+2     8.50000000E+1     1.21518952E-1     2.04667468E-1    -2.52487093E-1    -4.25249671E-1    -7.09366331E+0    -7.41759938E-1     1.63070590E-1   
                    1.30000000E+2     8.50000000E+1     1.37435548E-1     2.31335149E-1    -2.54810929E-1    -4.28904494E-1    -6.02843947E+0    -6.66060006E-1     4.42907314E-1   
                    1.35000000E+2     8.50000000E+1     1.52618850E-1     2.56733666E-1    -2.57222908E-1    -4.32697405E-1    -5.12221708E+0    -5.88187732E-1     7.21720827E-1   
                    1.40000000E+2     8.50000000E+1     1.66900138E-1     2.80586019E-1    -2.59650522E-1    -4.36514356E-1    -4.34916681E+0    -5.10516748E-1     9.91445511E-1   
                    1.45000000E+2     8.50000000E+1     1.80099065E-1     3.02597943E-1    -2.62019376E-1    -4.40238401E-1    -3.69183542E+0    -4.35396412E-1     1.24500994E+0   
                    1.50000000E+2     8.50000000E+1     1.92029622E-1     3.22467393E-1    -2.64255519E-1    -4.43753351E-1    -3.13819869E+0    -3.65081933E-1     1.47633960E+0   
                    3.00000000E+1     9.00000000E+1    -2.10054561E-1    -3.52863880E-1    -2.42550115E-1    -4.07452112E-1    -2.35659519E+0    -1.10720782E+0     1.32317266E+0   
                    3.50000000E+1     9.00000000E+1    -1.96648534E-1    -3.30563141E-1    -2.40063533E-1    -4.03543083E-1    -2.92516037E+0    -1.19245076E+0     1.03733991E+0   
                    4.00000000E+1     9.00000000E+1    -1.81884045E-1    -3.05963275E-1    -2.37432759E-1    -3.99406689E-1    -3.59848778E+0    -1.28356711E+0     7.21720738E-1   
                    4.50000000E+1     9.00000000E+1    -1.65986498E-1    -2.79429281E-1    -2.34740356E-1    -3.95172679E-1    -4.38812899E+0    -1.37782903E+0     3.83083559E-1   
                    5.00000000E+1     9.00000000E+1    -1.49171046E-1    -2.51311300E-1    -2.32068951E-1    -3.90970977E-1    -5.31103870E+0    -1.47238864E+0     2.95736238E-2   
                    5.50000000E+1     9.00000000E+1    -1.31635012E-1    -2.21932561E-1    -2.29498639E-1    -3.86927612E-1    -6.39253612E+0    -1.56436214E+0    -3.29145247E-1   
                    6.00000000E+1     9.00000000E+1    -1.13552351E-1    -1.91580556E-1    -2.27104702E-1    -3.83161111E-1    -7.67151831E+0    -1.65091840E+0    -6.81818265E-1   
                    6.50000000E+1     9.00000000E+1    -9.50703742E-2    -1.60501726E-1    -2.24955670E-1    -3.79779439E-1    -9.21040377E+0    -1.72936896E+0    -1.01568177E+0   
                    7.00000000E+1     9.00000000E+1    -7.63087126E-2    -1.28899699E-1    -2.23111750E-1    -3.76877506E-1    -1.11162231E+1    -1.79725676E+0    -1.31681143E+0   
                    7.50000000E+1     9.00000000E+1    -5.73604098E-2    -9.69368487E-2    -2.21623605E-1    -3.74535223E-1    -1.35925150E+1    -1.85243965E+0    -1.57084715E+0   
                    8.00000000E+1     9.00000000E+1    -3.82948838E-2    -6.47388278E-2    -2.20531447E-1    -3.72816051E-1    -1.70997608E+1    -1.89316540E+0    -1.76414518E+0   
                    8.50000000E+1     9.00000000E+1    -1.91624451E-2    -3.24015398E-2    -2.19864400E-1    -3.71765976E-1    -2.31122143E+1    -1.91813448E+0    -1.88526960E+0   
                    9.00000000E+1     9.00000000E+1   -1.34490767E-17   -2.27424774E-17    -2.19640091E-1    -3.71412841E-1    -3.26186930E+2    -1.92654745E+0    -1.92654745E+0   
                    9.50000000E+1     9.00000000E+1     1.91624464E-2     3.24015391E-2    -2.19864416E-1    -3.71765968E-1    -2.31122143E+1    -1.91813447E+0    -1.88526959E+0   
                    1.00000000E+2     9.00000000E+1     3.82948879E-2     6.47388256E-2    -2.20531470E-1    -3.72816038E-1    -1.70997608E+1    -1.89316538E+0    -1.76414515E+0   
                    1.05000000E+2     9.00000000E+1     5.73604152E-2     9.69368458E-2    -2.21623626E-1    -3.74535211E-1    -1.35925150E+1    -1.85243962E+0    -1.57084713E+0   
                    1.10000000E+2     9.00000000E+1     7.63087154E-2     1.28899697E-1    -2.23111758E-1    -3.76877502E-1    -1.11162231E+1    -1.79725674E+0    -1.31681141E+0   
                    1.15000000E+2     9.00000000E+1     9.50703696E-2     1.60501729E-1    -2.24955659E-1    -3.79779445E-1    -9.21040378E+0    -1.72936897E+0    -1.01568177E+0   
                    1.20000000E+2     9.00000000E+1     1.13552338E-1     1.91580563E-1    -2.27104675E-1    -3.83161126E-1    -7.67151833E+0    -1.65091842E+0    -6.81818288E-1   
                    1.25000000E+2     9.00000000E+1     1.31634993E-1     2.21932571E-1    -2.29498606E-1    -3.86927629E-1    -6.39253615E+0    -1.56436218E+0    -3.29145279E-1   
                    1.30000000E+2     9.00000000E+1     1.49171032E-1     2.51311307E-1    -2.32068928E-1    -3.90970989E-1    -5.31103873E+0    -1.47238866E+0     2.95735971E-2   
                    1.35000000E+2     9.00000000E+1     1.65986499E-1     2.79429280E-1    -2.34740359E-1    -3.95172677E-1    -4.38812900E+0    -1.37782904E+0     3.83083552E-1   
                    1.40000000E+2     9.00000000E+1     1.81884072E-1     3.05963260E-1    -2.37432794E-1    -3.99406670E-1    -3.59848776E+0    -1.28356709E+0     7.21720760E-1   
                    1.45000000E+2     9.00000000E+1     1.96648585E-1     3.30563113E-1    -2.40063596E-1    -4.03543048E-1    -2.92516032E+0    -1.19245071E+0     1.03733996E+0   
                    1.50000000E+2     9.00000000E+1     2.10054627E-1     3.52863844E-1    -2.42550191E-1    -4.07452071E-1    -2.35659513E+0    -1.10720776E+0     1.32317272E+0   
                    3.00000000E+1     9.50000000E+1    -2.26278486E-1    -3.80256480E-1    -2.19243216E-1    -3.68433848E-1    -1.70803481E+0    -1.98237684E+0     1.16726003E+0   
                    3.50000000E+1     9.50000000E+1    -2.11453062E-1    -3.55621794E-1    -2.16602262E-1    -3.64281721E-1    -2.29158252E+0    -2.08260230E+0     8.24464426E-1   
                    4.00000000E+1     9.50000000E+1    -1.95196486E-1    -3.28559902E-1    -2.13811745E-1    -3.59893601E-1    -2.98098083E+0    -2.18978956E+0     4.42907161E-1   
                    4.50000000E+1     9.50000000E+1    -1.77775122E-1    -2.99501145E-1    -2.10959707E-1    -3.55407850E-1    -3.78730939E+0    -2.30073882E+0     2.95735427E-2   
                    5.00000000E+1     9.50000000E+1    -1.59439740E-1    -2.68852731E-1    -2.08133799E-1    -3.50962315E-1    -4.72702285E+0    -2.41210218E+0    -4.06814331E-1   
                    5.50000000E+1     9.50000000E+1    -1.40416253E-1    -2.36984027E-1    -2.05418525E-1    -3.46689992E-1    -5.82492638E+0    -2.52048180E+0    -8.55420774E-1   
                    6.00000000E+1     9.50000000E+1    -1.20899151E-1    -2.04216081E-1    -2.02892866E-1    -3.42715277E-1    -7.11940478E+0    -2.62253427E+0    -1.30291967E+0   
                    6.50000000E+1     9.50000000E+1    -1.01047823E-1    -1.70815650E-1    -2.00628318E-1    -3.39150865E-1    -8.67238307E+0    -2.71507766E+0    -1.73324462E+0   
                    7.00000000E+1     9.50000000E+1    -8.09857097E-2    -1.36993704E-1    -1.98687359E-1    -3.36095311E-1    -1.05904347E+1    -2.79519781E+0    -2.12768789E+0   
                    7.50000000E+1     9.50000000E+1    -6.08020858E-2    -1.02908052E-1    -1.97122309E-1    -3.33631201E-1    -1.30766953E+1    -2.86034936E+0    -2.46565098E+0   
                    8.00000000E+1     9.50000000E+1    -4.05561107E-2    -6.86695652E-2    -1.95974516E-1    -3.31823850E-1    -1.65913129E+1    -2.90844690E+0    -2.72632598E+0   
                    8.50000000E+1     9.50000000E+1    -2.02827350E-2    -3.43513261E-2    -1.95273827E-1    -3.30720434E-1    -2.26082923E+1    -2.93794190E+0    -2.89133856E+0   
                    9.00000000E+1     9.50000000E+1   -1.42326952E-17   -2.41068748E-17    -1.95038264E-1    -3.30349448E-1    -3.25684534E+2    -2.94788087E+0    -2.94788087E+0   
                    9.50000000E+1     9.50000000E+1     2.02827370E-2     3.43513250E-2    -1.95273846E-1    -3.30720424E-1    -2.26082923E+1    -2.93794187E+0    -2.89133854E+0   
                    1.00000000E+2     9.50000000E+1     4.05561169E-2     6.86695619E-2    -1.95974546E-1    -3.31823834E-1    -1.65913129E+1    -2.90844687E+0    -2.72632595E+0   
                    1.05000000E+2     9.50000000E+1     6.08020947E-2     1.02908048E-1    -1.97122338E-1    -3.33631185E-1    -1.30766953E+1    -2.86034932E+0    -2.46565094E+0   
                    1.10000000E+2     9.50000000E+1     8.09857159E-2     1.36993701E-1    -1.98687375E-1    -3.36095303E-1    -1.05904347E+1    -2.79519779E+0    -2.12768787E+0   
                    1.15000000E+2     9.50000000E+1     1.01047820E-1     1.70815652E-1    -2.00628312E-1    -3.39150868E-1    -8.67238308E+0    -2.71507766E+0    -1.73324462E+0   
                    1.20000000E+2     9.50000000E+1     1.20899136E-1     2.04216090E-1    -2.02892840E-1    -3.42715291E-1    -7.11940481E+0    -2.62253429E+0    -1.30291969E+0   
                    1.25000000E+2     9.50000000E+1     1.40416228E-1     2.36984040E-1    -2.05418490E-1    -3.46690011E-1    -5.82492642E+0    -2.52048184E+0    -8.55420812E-1   
                    1.30000000E+2     9.50000000E+1     1.59439718E-1     2.68852742E-1    -2.08133771E-1    -3.50962329E-1    -4.72702288E+0    -2.41210221E+0    -4.06814364E-1   
                    1.35000000E+2     9.50000000E+1     1.77775119E-1     2.99501147E-1    -2.10959703E-1    -3.55407851E-1    -3.78730940E+0    -2.30073884E+0     2.95735308E-2   
                    1.40000000E+2     9.50000000E+1     1.95196514E-1     3.28559887E-1    -2.13811776E-1    -3.59893584E-1    -2.98098081E+0    -2.18978953E+0     4.42907182E-1   
                    1.45000000E+2     9.50000000E+1     2.11453123E-1     3.55621760E-1    -2.16602325E-1    -3.64281686E-1    -2.29158246E+0    -2.08260225E+0     8.24464481E-1   
                    1.50000000E+2     9.50000000E+1     2.26278568E-1     3.80256436E-1    -2.19243295E-1    -3.68433805E-1    -1.70803474E+0    -1.98237677E+0     1.16726010E+0   
                    3.00000000E+1     1.00000000E+2    -2.40639291E-1    -4.04533264E-1    -1.94564091E-1    -3.27077289E-1    -1.17128952E+0    -3.01736651E+0     1.01333236E+0   
                    3.50000000E+1     1.00000000E+2    -2.24476142E-1    -3.77702979E-1    -1.91881212E-1    -3.22858833E-1    -1.76941658E+0    -3.13217133E+0     6.12739796E-1   
                    4.00000000E+1     1.00000000E+2    -2.06825313E-1    -3.48344129E-1    -1.89049923E-1    -3.18406050E-1    -2.47446975E+0    -3.25501345E+0     1.63070387E-1   
                    4.50000000E+1     1.00000000E+2    -1.87994269E-1    -3.16952544E-1    -1.86160008E-1    -3.13860037E-1    -3.29707189E+0    -3.38223629E+0    -3.29145379E-1   
                    5.00000000E+1     1.00000000E+2    -1.68269005E-1    -2.83991813E-1    -1.83300400E-1    -3.09360675E-1    -4.25319146E+0    -3.51000576E+0    -8.55420823E-1   
                    5.50000000E+1     1.00000000E+2    -1.47903128E-1    -2.49875956E-1    -1.80556381E-1    -3.05042217E-1    -5.36713155E+0    -3.63442193E+0    -1.40463126E+0   
                    6.00000000E+1     1.00000000E+2    -1.27110329E-1    -2.14957385E-1    -1.78007221E-1    -3.01029563E-1    -6.67677425E+0    -3.75163869E+0    -1.96215201E+0   
                    6.50000000E+1     1.00000000E+2    -1.06060400E-1    -1.79520449E-1    -1.75724285E-1    -2.97435257E-1    -8.24355814E+0    -3.85798769E+0    -2.50893220E+0   
                    7.00000000E+1     1.00000000E+2    -8.48787006E-2    -1.43780367E-1    -1.73769607E-1    -2.94357216E-1    -1.01736043E+1    -3.95010234E+0    -3.02083133E+0   
                    7.50000000E+1     1.00000000E+2    -6.36487207E-2    -1.07887088E-1    -1.72194878E-1    -2.91877099E-1    -1.26696477E+1    -4.02503663E+0    -3.46885410E+0   
                    8.00000000E+1     1.00000000E+2    -4.24173091E-2    -7.19333239E-2    -1.71040779E-1    -2.90059224E-1    -1.61915041E+1    -4.08037310E+0    -3.82116629E+0   
                    8.50000000E+1     1.00000000E+2    -2.12020147E-2    -3.59659686E-2    -1.70336572E-1    -2.88949891E-1    -2.22129299E+1    -4.11431439E+0    -4.04754460E+0   
                    9.00000000E+1     1.00000000E+2   -1.48750382E-17   -2.52357253E-17    -1.70099884E-1    -2.88577002E-1    -3.25290671E+2    -4.12575286E+0    -4.12575286E+0   
                    9.50000000E+1     1.00000000E+2     2.12020174E-2     3.59659672E-2    -1.70336595E-1    -2.88949879E-1    -2.22129298E+1    -4.11431436E+0    -4.04754457E+0   
                    1.00000000E+2     1.00000000E+2     4.24173180E-2     7.19333192E-2    -1.71040815E-1    -2.90059205E-1    -1.61915041E+1    -4.08037306E+0    -3.82116625E+0   
                    1.05000000E+2     1.00000000E+2     6.36487338E-2     1.07887081E-1    -1.72194914E-1    -2.91877080E-1    -1.26696476E+1    -4.02503658E+0    -3.46885405E+0   
                    1.10000000E+2     1.00000000E+2     8.48787109E-2     1.43780362E-1    -1.73769628E-1    -2.94357204E-1    -1.01736043E+1    -3.95010231E+0    -3.02083130E+0   
                    1.15000000E+2     1.00000000E+2     1.06060399E-1     1.79520449E-1    -1.75724283E-1    -2.97435259E-1    -8.24355814E+0    -3.85798769E+0    -2.50893220E+0   
                    1.20000000E+2     1.00000000E+2     1.27110311E-1     2.14957395E-1    -1.78007196E-1    -3.01029577E-1    -6.67677427E+0    -3.75163872E+0    -1.96215203E+0   
                    1.25000000E+2     1.00000000E+2     1.47903097E-1     2.49875973E-1    -1.80556343E-1    -3.05042238E-1    -5.36713159E+0    -3.63442198E+0    -1.40463131E+0   
                    1.30000000E+2     1.00000000E+2     1.68268974E-1     2.83991830E-1    -1.83300366E-1    -3.09360692E-1    -4.25319151E+0    -3.51000580E+0    -8.55420866E-1   
                    1.35000000E+2     1.00000000E+2     1.87994258E-1     3.16952549E-1    -1.86159998E-1    -3.13860042E-1    -3.29707191E+0    -3.38223631E+0    -3.29145398E-1   
                    1.40000000E+2     1.00000000E+2     2.06825340E-1     3.48344115E-1    -1.89049948E-1    -3.18406036E-1    -2.47446973E+0    -3.25501343E+0     1.63070407E-1   
                    1.45000000E+2     1.00000000E+2     2.24476211E-1     3.77702941E-1    -1.91881271E-1    -3.22858801E-1    -1.76941652E+0    -3.13217127E+0     6.12739855E-1   
                    1.50000000E+2     1.00000000E+2     2.40639389E-1     4.04533211E-1    -1.94564171E-1    -3.27077246E-1    -1.17128943E+0    -3.01736643E+0     1.01333244E+0   
                    3.00000000E+1     1.05000000E+2    -2.53098163E-1    -4.25620265E-1    -1.68732109E-1    -2.83746843E-1    -7.30689283E-1    -4.25251446E+0     8.66319146E-1   
                    3.50000000E+1     1.05000000E+2    -2.35705710E-1    -3.96775509E-1    -1.66128811E-1    -2.79653147E-1    -1.34254283E+0    -4.38104577E+0     4.08989103E-1   
                    4.00000000E+1     1.05000000E+2    -2.16783410E-1    -3.65324821E-1    -1.63384725E-1    -2.75337007E-1    -2.06235003E+0    -4.51864190E+0    -1.08808020E-1   
                    4.50000000E+1     1.05000000E+2    -1.96678437E-1    -3.31827251E-1    -1.60587272E-1    -2.70935816E-1    -2.90030591E+0    -4.66121850E+0    -6.81818415E-1   
                    5.00000000E+1     1.05000000E+2    -1.75710385E-1    -2.96800128E-1    -1.57822641E-1    -2.66585154E-1    -3.87192170E+0    -4.80448418E+0    -1.30291973E+0   
                    5.50000000E+1     1.05000000E+2    -1.54158784E-1    -2.60699243E-1    -1.55173068E-1    -2.62414508E-1    -5.00102607E+0    -4.94406465E+0    -1.96215202E+0   
                    6.00000000E+1     1.05000000E+2    -1.32254715E-1    -2.23905436E-1    -1.52714591E-1    -2.58543727E-1    -6.32502408E+0    -5.07563671E+0    -2.64525623E+0   
                    6.50000000E+1     1.05000000E+2    -1.10176647E-1    -1.86717803E-1    -1.50515306E-1    -2.55080255E-1    -7.90489064E+0    -5.19506838E+0    -3.33166919E+0   
                    7.00000000E+1     1.05000000E+2    -8.80502880E-2    -1.49353232E-1    -1.48634104E-1    -2.52117105E-1    -9.84631380E+0    -5.29856004E+0    -3.99222085E+0   
                    7.50000000E+1     1.05000000E+2    -6.59520135E-2    -1.11951566E-1    -1.47119825E-1    -2.49731494E-1    -1.23516437E+1    -5.38278083E+0    -4.58748855E+0   
                    8.00000000E+1     1.05000000E+2    -4.39152827E-2    -7.45855177E-2    -1.46010748E-1    -2.47983994E-1    -1.58803762E+1    -5.44499335E+0    -5.06889170E+0   
                    8.50000000E+1     1.05000000E+2    -2.19394027E-2    -3.72743008E-2    -1.45334314E-1    -2.46918068E-1    -2.19060271E+1    -5.48315986E+0    -5.38530205E+0   