##File Type: Far field
##File Format: 6
##Source: DipPhiRot0
##Date: 2021-04-14 14:16:39
** File exported by POSTFEKO version 2019.1-353059 (x64)

#Configuration Name: StandardConfiguration1
#Request Name: FarField1
#Frequency: 1.00000000E+9
#Coordinate System: Spherical
#No. of Theta Samples: 37
#No. of Phi Samples: 73
#Result Type: Directivity
#No. of Header Lines: 1
#                 "Theta"           "Phi"             "Re(Etheta)"      "Im(Etheta)"      "Re(Ephi)"        "Im(Ephi)"        "Directivity(Theta)""Directivity(Phi)""Directivity(Total)"
                    0.00000000E+0     0.00000000E+0     2.50537712E-1     4.20003862E-1    -2.50537712E-1    -4.20003862E-1    -8.38983482E-1    -8.38983482E-1     2.17131647E+0   
                    5.00000000E+0     0.00000000E+0     2.49340133E-1     4.18021590E-1    -2.50292572E-1    -4.19618364E-1    -8.80213203E-1    -8.47097724E-1     2.14667606E+0   
                    1.00000000E+1     0.00000000E+0     2.45773781E-1     4.12117615E-1    -2.49565238E-1    -4.18475194E-1    -1.00417899E+0    -8.71208170E-1     2.07311526E+0   
                    1.50000000E+1     0.00000000E+0     2.39917272E-1     4.02417657E-1    -2.48380637E-1    -4.16613415E-1    -1.21174335E+0    -9.10618916E-1     1.95172816E+0   
                    2.00000000E+1     0.00000000E+0     2.31896474E-1     3.89123152E-1    -2.46779073E-1    -4.14096209E-1    -1.50447268E+0    -9.64189013E-1     1.78436544E+0   
                    2.50000000E+1     0.00000000E+0     2.21877255E-1     3.72499869E-1    -2.44814464E-1    -4.11008131E-1    -1.88484648E+0    -1.03036071E+0     1.57367784E+0   
                    3.00000000E+1     0.00000000E+0     2.10056240E-1     3.52863381E-1    -2.42552053E-1    -4.07451536E-1    -2.35658609E+0    -1.10719873E+0     1.32318176E+0   
                    3.50000000E+1     0.00000000E+0     1.96650342E-1     3.30562604E-1    -2.40065741E-1    -4.03542426E-1    -2.92514992E+0    -1.19244031E+0     1.03735036E+0   
                    4.00000000E+1     0.00000000E+0     1.81885927E-1     3.05962715E-1    -2.37435215E-1    -3.99405958E-1    -3.59847606E+0    -1.28355539E+0     7.21732459E-1   
                    4.50000000E+1     0.00000000E+0     1.65988394E-1     2.79428716E-1    -2.34743039E-1    -3.95171880E-1    -4.38811608E+0    -1.37781613E+0     3.83096463E-1   
                    5.00000000E+1     0.00000000E+0     1.49172900E-1     2.51310747E-1    -2.32071835E-1    -3.90970116E-1    -5.31102471E+0    -1.47237465E+0     2.95876107E-2   
                    5.50000000E+1     0.00000000E+0     1.31636767E-1     2.21932036E-1    -2.29501700E-1    -3.86926697E-1    -6.39252116E+0    -1.56434719E+0    -3.29130291E-1   
                    6.00000000E+1     0.00000000E+0     1.13553958E-1     1.91580074E-1    -2.27107915E-1    -3.83160149E-1    -7.67150251E+0    -1.65090259E+0    -6.81802464E-1   
                    6.50000000E+1     0.00000000E+0     9.50717861E-2     1.60501302E-1    -2.24959011E-1    -3.79778435E-1    -9.21038726E+0    -1.72935245E+0    -1.01566525E+0   
                    7.00000000E+1     0.00000000E+0     7.63098907E-2     1.28899344E-1    -2.23115194E-1    -3.76876468E-1    -1.11162060E+1    -1.79723966E+0    -1.31679433E+0   
                    7.50000000E+1     0.00000000E+0     5.73613218E-2     9.69365733E-2    -2.21627129E-1    -3.74534159E-1    -1.35924975E+1    -1.85242210E+0    -1.57082961E+0   
                    8.00000000E+1     0.00000000E+0     3.82955054E-2     6.47386398E-2    -2.20535026E-1    -3.72814968E-1    -1.70997429E+1    -1.89314754E+0    -1.76412732E+0   
                    8.50000000E+1     0.00000000E+0     1.91627600E-2     3.24014444E-2    -2.19868013E-1    -3.71764882E-1    -2.31121963E+1    -1.91811644E+0    -1.88525156E+0   
                    9.00000000E+1     0.00000000E+0    1.34492986E-17    2.27424102E-17    -2.19643714E-1    -3.71411744E-1    -3.26186912E+2    -1.92652934E+0    -1.92652934E+0   
                    9.50000000E+1     0.00000000E+0    -1.91627612E-2    -3.24014438E-2    -2.19868027E-1    -3.71764875E-1    -2.31121963E+1    -1.91811643E+0    -1.88525155E+0   
                    1.00000000E+2     0.00000000E+0    -3.82955091E-2    -6.47386378E-2    -2.20535047E-1    -3.72814957E-1    -1.70997429E+1    -1.89314752E+0    -1.76412730E+0   
                    1.05000000E+2     0.00000000E+0    -5.73613264E-2    -9.69365709E-2    -2.21627146E-1    -3.74534149E-1    -1.35924975E+1    -1.85242208E+0    -1.57082959E+0   
                    1.10000000E+2     0.00000000E+0    -7.63098922E-2    -1.28899343E-1    -2.23115198E-1    -3.76876466E-1    -1.11162060E+1    -1.79723965E+0    -1.31679432E+0   
                    1.15000000E+2     0.00000000E+0    -9.50717801E-2    -1.60501306E-1    -2.24958997E-1    -3.79778443E-1    -9.21038727E+0    -1.72935246E+0    -1.01566526E+0   
                    1.20000000E+2     0.00000000E+0    -1.13553943E-1    -1.91580082E-1    -2.27107885E-1    -3.83160165E-1    -7.67150253E+0    -1.65090262E+0    -6.81802491E-1   
                    1.25000000E+2     0.00000000E+0    -1.31636747E-1    -2.21932047E-1    -2.29501665E-1    -3.86926716E-1    -6.39252120E+0    -1.56434722E+0    -3.29130326E-1   
                    1.30000000E+2     0.00000000E+0    -1.49172885E-1    -2.51310755E-1    -2.32071811E-1    -3.90970129E-1    -5.31102474E+0    -1.47237468E+0     2.95875824E-2   
                    1.35000000E+2     0.00000000E+0    -1.65988395E-1    -2.79428715E-1    -2.34743040E-1    -3.95171878E-1    -4.38811609E+0    -1.37781613E+0     3.83096456E-1   
                    1.40000000E+2     0.00000000E+0    -1.81885954E-1    -3.05962700E-1    -2.37435250E-1    -3.99405939E-1    -3.59847604E+0    -1.28355537E+0     7.21732480E-1   
                    1.45000000E+2     0.00000000E+0    -1.96650394E-1    -3.30562575E-1    -2.40065804E-1    -4.03542392E-1    -2.92514988E+0    -1.19244027E+0     1.03735041E+0   
                    1.50000000E+2     0.00000000E+0    -2.10056305E-1    -3.52863346E-1    -2.42552129E-1    -4.07451495E-1    -2.35658603E+0    -1.10719867E+0     1.32318182E+0   
                    1.55000000E+2     0.00000000E+0    -2.21877312E-1    -3.72499839E-1    -2.44814527E-1    -4.11008097E-1    -1.88484642E+0    -1.03036065E+0     1.57367790E+0   
                    1.60000000E+2     0.00000000E+0    -2.31896496E-1    -3.89123140E-1    -2.46779097E-1    -4.14096196E-1    -1.50447266E+0    -9.64188993E-1     1.78436546E+0   
                    1.65000000E+2     0.00000000E+0    -2.39917241E-1    -4.02417674E-1    -2.48380605E-1    -4.16613432E-1    -1.21174338E+0    -9.10618944E-1     1.95172813E+0   
                    1.70000000E+2     0.00000000E+0    -2.45773691E-1    -4.12117664E-1    -2.49565147E-1    -4.18475243E-1    -1.00417907E+0    -8.71208249E-1     2.07311518E+0   
                    1.75000000E+2     0.00000000E+0    -2.49339998E-1    -4.18021663E-1    -2.50292436E-1    -4.19618438E-1    -8.80213320E-1    -8.47097841E-1     2.14667594E+0   
                    1.80000000E+2     0.00000000E+0    -2.50537561E-1    -4.20003944E-1    -2.50537561E-1    -4.20003944E-1    -8.38983613E-1    -8.38983613E-1     2.17131634E+0   
                    0.00000000E+0     5.00000000E+0     2.27748540E-1     3.81799872E-1    -2.71420141E-1    -4.55011369E-1    -1.66733359E+0    -1.43604194E-1     2.17131647E+0   
                    5.00000000E+0     5.00000000E+0     2.26698444E-1     3.80058509E-1    -2.71200686E-1    -4.54666236E-1    -1.70715407E+0    -1.50309199E-1     2.15095955E+0   
                    1.00000000E+1     5.00000000E+0     2.23568972E-1     3.74868339E-1    -2.70549379E-1    -4.53642539E-1    -1.82693079E+0    -1.70230577E-1     2.09024242E+0   
                    1.50000000E+1     5.00000000E+0     2.18422265E-1     3.66329021E-1    -2.69488103E-1    -4.51974587E-1    -2.02764187E+0    -2.02788039E-1     1.99023582E+0   
                    2.00000000E+1     5.00000000E+0     2.11358095E-1     3.54600689E-1    -2.68052300E-1    -4.49717956E-1    -2.31104393E+0    -2.47030862E-1     1.85274264E+0   
                    2.50000000E+1     5.00000000E+0     2.02508509E-1     3.39895533E-1    -2.66289495E-1    -4.46947195E-1    -2.67987752E+0    -3.01662350E-1     1.68032588E+0   
                    3.00000000E+1     5.00000000E+0     1.92030966E-1     3.22467006E-1    -2.64257368E-1    -4.43752818E-1    -3.13819048E+0    -3.65073717E-1     1.47634782E+0   
                    3.50000000E+1     5.00000000E+0     1.80100526E-1     3.02597520E-1    -2.62021502E-1    -4.40237784E-1    -3.69182597E+0    -4.35386962E-1     1.24501939E+0   
                    4.00000000E+1     5.00000000E+0     1.66901680E-1     2.80585567E-1    -2.59652921E-1    -4.36513652E-1    -4.34915619E+0    -5.10506120E-1     9.91456138E-1   
                    4.50000000E+1     5.00000000E+0     1.52620425E-1     2.56733199E-1    -2.57225563E-1    -4.32696617E-1    -5.12220535E+0    -5.88176002E-1     7.21732557E-1   
                    5.00000000E+1     5.00000000E+0     1.37437103E-1     2.31334684E-1    -2.54813813E-1    -4.28903632E-1    -6.02842673E+0    -6.66047267E-1     4.42920054E-1   
                    5.50000000E+1     5.00000000E+0     1.21520432E-1     2.04667024E-1    -2.52490169E-1    -4.25248748E-1    -7.09364967E+0    -7.41746297E-1     1.63084231E-1   
                    6.00000000E+1     5.00000000E+0     1.05023033E-1     1.76982815E-1    -2.50323155E-1    -4.21839811E-1    -8.35727731E+0    -8.12947999E-1    -1.08793360E-1   
                    6.50000000E+1     5.00000000E+0     8.80786249E-2     1.48505707E-1    -2.48375489E-1    -4.18775584E-1    -9.88221350E+0    -8.77449292E-1    -3.63012326E-1   
                    7.00000000E+1     5.00000000E+0     7.08009162E-2     1.19428548E-1    -2.46702564E-1    -4.16143330E-1    -1.17759365E+1    -9.33240765E-1    -5.89512702E-1   
                    7.50000000E+1     5.00000000E+0     5.32841403E-2     8.99140975E-2    -2.45351209E-1    -4.14016862E-1    -1.42423785E+1    -9.78573765E-1    -7.78422727E-1   
                    8.00000000E+1     5.00000000E+0     3.56050543E-2     6.00980476E-2    -2.44358748E-1    -4.12455029E-1    -1.77423449E+1    -1.01202014E+0    -9.20780854E-1   
                    8.50000000E+1     5.00000000E+0     1.78261791E-2     3.00940075E-2    -2.43752302E-1    -4.11500614E-1    -2.37503312E+1    -1.03252199E+0    -1.00935633E+0   
                    9.00000000E+1     5.00000000E+0    1.25135210E-17    2.11264204E-17    -2.43548321E-1    -4.11179573E-1    -3.26823541E+2    -1.03942906E+0    -1.03942906E+0   
                    9.50000000E+1     5.00000000E+0    -1.78261799E-2    -3.00940071E-2    -2.43752314E-1    -4.11500608E-1    -2.37503312E+1    -1.03252198E+0    -1.00935632E+0   
                    1.00000000E+2     5.00000000E+0    -3.56050567E-2    -6.00980464E-2    -2.44358765E-1    -4.12455020E-1    -1.77423449E+1    -1.01202012E+0    -9.20780837E-1   
                    1.05000000E+2     5.00000000E+0    -5.32841430E-2    -8.99140961E-2    -2.45351222E-1    -4.14016855E-1    -1.42423785E+1    -9.78573750E-1    -7.78422712E-1   
                    1.10000000E+2     5.00000000E+0    -7.08009163E-2    -1.19428548E-1    -2.46702564E-1    -4.16143330E-1    -1.17759365E+1    -9.33240761E-1    -5.89512698E-1   
                    1.15000000E+2     5.00000000E+0    -8.80786193E-2    -1.48505710E-1    -2.48375474E-1    -4.18775593E-1    -9.88221351E+0    -8.77449302E-1    -3.63012336E-1   
                    1.20000000E+2     5.00000000E+0    -1.05023022E-1    -1.76982821E-1    -2.50323126E-1    -4.21839827E-1    -8.35727733E+0    -8.12948022E-1    -1.08793383E-1   
                    1.25000000E+2     5.00000000E+0    -1.21520417E-1    -2.04667032E-1    -2.52490138E-1    -4.25248764E-1    -7.09364969E+0    -7.41746325E-1     1.63084204E-1   
                    1.30000000E+2     5.00000000E+0    -1.37437093E-1    -2.31334689E-1    -2.54813794E-1    -4.28903642E-1    -6.02842675E+0    -6.66047288E-1     4.42920033E-1   
                    1.35000000E+2     5.00000000E+0    -1.52620429E-1    -2.56733197E-1    -2.57225569E-1    -4.32696613E-1    -5.12220536E+0    -5.88176006E-1     7.21732553E-1   
                    1.40000000E+2     5.00000000E+0    -1.66901703E-1    -2.80585554E-1    -2.59652956E-1    -4.36513632E-1    -4.34915617E+0    -5.10506101E-1     9.91456158E-1   
                    1.45000000E+2     5.00000000E+0    -1.80100567E-1    -3.02597497E-1    -2.62021562E-1    -4.40237752E-1    -3.69182593E+0    -4.35386923E-1     1.24501943E+0   
                    1.50000000E+2     5.00000000E+0    -1.92031015E-1    -3.22466980E-1    -2.64257435E-1    -4.43752782E-1    -3.13819043E+0    -3.65073670E-1     1.47634786E+0   
                    1.55000000E+2     5.00000000E+0    -2.02508546E-1    -3.39895513E-1    -2.66289544E-1    -4.46947168E-1    -2.67987748E+0    -3.01662315E-1     1.68032592E+0   
                    1.60000000E+2     5.00000000E+0    -2.11358101E-1    -3.54600685E-1    -2.68052309E-1    -4.49717952E-1    -2.31104392E+0    -2.47030858E-1     1.85274265E+0   
                    1.65000000E+2     5.00000000E+0    -2.18422226E-1    -3.66329042E-1    -2.69488055E-1    -4.51974613E-1    -2.02764191E+0    -2.02788078E-1     1.99023578E+0   
                    1.70000000E+2     5.00000000E+0    -2.23568885E-1    -3.74868386E-1    -2.70549273E-1    -4.53642596E-1    -1.82693088E+0    -1.70230661E-1     2.09024234E+0   
                    1.75000000E+2     5.00000000E+0    -2.26698320E-1    -3.80058576E-1    -2.71200537E-1    -4.54666316E-1    -1.70715419E+0    -1.50309318E-1     2.15095943E+0   
                    1.80000000E+2     5.00000000E+0    -2.27748402E-1    -3.81799946E-1    -2.71419977E-1    -4.55011458E-1    -1.66733372E+0    -1.43604326E-1     2.17131634E+0   
                    0.00000000E+0     1.00000000E+1     2.03226064E-1     3.40690154E-1    -2.90236899E-1    -4.86555965E-1    -2.65685750E+0     4.38606863E-1     2.17131647E+0   
                    5.00000000E+0     1.00000000E+1     2.02322393E-1     3.39188728E-1    -2.90050050E-1    -4.86262080E-1    -2.69531164E+0     4.33268206E-1     2.15511101E+0   
                    1.00000000E+1     1.00000000E+1     1.99627256E-1     3.34710435E-1    -2.89495353E-1    -4.85390208E-1    -2.81102749E+0     4.17407689E-1     2.10681904E+0   
                    1.50000000E+1     1.00000000E+1     1.95188160E-1     3.27331738E-1    -2.88591085E-1    -4.83969013E-1    -3.00509741E+0     3.91491392E-1     2.02742015E+0   
                    2.00000000E+1     1.00000000E+1     1.89081627E-1     3.17175900E-1    -2.87366893E-1    -4.82044999E-1    -3.27946562E+0     3.56282408E-1     1.91855487E+0   
                    2.50000000E+1     1.00000000E+1     1.81409435E-1     3.04407066E-1    -2.85862624E-1    -4.79680690E-1    -3.63712966E+0     3.12820472E-1     1.78253550E+0   
                    3.00000000E+1     1.00000000E+1     1.72293779E-1     2.89222644E-1    -2.84126789E-1    -4.76952225E-1    -4.08245784E+0     2.62393885E-1     1.62235934E+0   
                    3.50000000E+1     1.00000000E+1     1.61871728E-1     2.71844560E-1    -2.82214745E-1    -4.73946526E-1    -4.62166979E+0     2.06504181E-1     1.44172108E+0   
                    4.00000000E+1     1.00000000E+1     1.50289369E-1     2.52510017E-1    -2.80186697E-1    -4.70758167E-1    -5.26356086E+0     1.46824170E-1     1.24501947E+0   
                    4.50000000E+1     1.00000000E+1     1.37696071E-1     2.31462422E-1    -2.78105618E-1    -4.67486108E-1    -6.02061411E+0     8.51502081E-2     1.03735054E+0   
                    5.00000000E+1     1.00000000E+1     1.24239219E-1     2.08943036E-1    -2.76035180E-1    -4.64230449E-1    -6.91076467E+0     2.33497514E-2     8.24476028E-1   
                    5.50000000E+1     1.00000000E+1     1.10059746E-1     1.85183863E-1    -2.74037769E-1    -4.61089313E-1    -7.96033282E+0    -3.66944868E-2     6.12752273E-1   
                    6.00000000E+1     1.00000000E+1     9.52886757E-2     1.60402130E-1    -2.72172664E-1    -4.58155965E-1    -9.20920650E+0    -9.31422234E-2     4.09002343E-1   
                    6.50000000E+1     1.00000000E+1     8.00448392E-2     1.34796594E-1    -2.70494410E-1    -4.55516254E-1    -1.07207525E+1    -1.44253353E-1     2.20314600E-1   
                    7.00000000E+1     1.00000000E+1     6.44338002E-2     1.08545751E-1    -2.69051415E-1    -4.53246399E-1    -1.26028745E+1    -1.88443799E-1     5.37566494E-2   
                    7.50000000E+1     1.00000000E+1     4.85479689E-2     8.18079093E-2    -2.67884788E-1    -4.51411150E-1    -1.50598772E+1    -2.24337432E-1    -8.39933079E-2   
                    8.00000000E+1     1.00000000E+1     3.24678007E-2     5.47229715E-2    -2.67027420E-1    -4.50062326E-1    -1.85528717E+1    -2.50811988E-1    -1.87075575E-1   
                    8.50000000E+1     1.00000000E+1     1.62639246E-2     2.74156781E-2    -2.66503282E-1    -4.49237707E-1    -2.45565813E+1    -2.67037109E-1    -2.50892690E-1   
                    9.00000000E+1     1.00000000E+1    1.14188599E-17    1.92493266E-17    -2.66326944E-1    -4.48960263E-1    -3.27628350E+2    -2.72502807E-1    -2.72502807E-1   
                    9.50000000E+1     1.00000000E+1    -1.62639252E-2    -2.74156778E-2    -2.66503292E-1    -4.49237702E-1    -2.45565813E+1    -2.67037100E-1    -2.50892681E-1   
                    1.00000000E+2     1.00000000E+1    -3.24678024E-2    -5.47229706E-2    -2.67027434E-1    -4.50062318E-1    -1.85528717E+1    -2.50811975E-1    -1.87075562E-1   
                    1.05000000E+2     1.00000000E+1    -4.85479707E-2    -8.18079084E-2    -2.67884798E-1    -4.51411144E-1    -1.50598772E+1    -2.24337421E-1    -8.39932971E-2   
                    1.10000000E+2     1.00000000E+1    -6.44338000E-2    -1.08545751E-1    -2.69051413E-1    -4.53246400E-1    -1.26028745E+1    -1.88443797E-1     5.37566520E-2   
                    1.15000000E+2     1.00000000E+1    -8.00448347E-2    -1.34796597E-1    -2.70494395E-1    -4.55516263E-1    -1.07207525E+1    -1.44253361E-1     2.20314591E-1   
                    1.20000000E+2     1.00000000E+1    -9.52886668E-2    -1.60402135E-1    -2.72172639E-1    -4.58155979E-1    -9.20920652E+0    -9.31422414E-2     4.09002325E-1   
                    1.25000000E+2     1.00000000E+1    -1.10059735E-1    -1.85183869E-1    -2.74037743E-1    -4.61089327E-1    -7.96033284E+0    -3.66945076E-2     6.12752252E-1   
                    1.30000000E+2     1.00000000E+1    -1.24239213E-1    -2.08943040E-1    -2.76035165E-1    -4.64230457E-1    -6.91076469E+0     2.33497369E-2     8.24476013E-1   
                    1.35000000E+2     1.00000000E+1    -1.37696075E-1    -2.31462420E-1    -2.78105626E-1    -4.67486103E-1    -6.02061411E+0     8.51502081E-2     1.03735054E+0   
                    1.40000000E+2     1.00000000E+1    -1.50289387E-1    -2.52510007E-1    -2.80186730E-1    -4.70758148E-1    -5.26356084E+0     1.46824188E-1     1.24501948E+0   
                    1.45000000E+2     1.00000000E+1    -1.61871757E-1    -2.71844543E-1    -2.82214797E-1    -4.73946498E-1    -4.62166976E+0     2.06504213E-1     1.44172111E+0   
                    1.50000000E+2     1.00000000E+1    -1.72293812E-1    -2.89222627E-1    -2.84126843E-1    -4.76952196E-1    -4.08245781E+0     2.62393919E-1     1.62235938E+0   
                    1.55000000E+2     1.00000000E+1    -1.81409455E-1    -3.04407054E-1    -2.85862657E-1    -4.79680672E-1    -3.63712964E+0     3.12820492E-1     1.78253552E+0   
                    1.60000000E+2     1.00000000E+1    -1.89081621E-1    -3.17175903E-1    -2.87366883E-1    -4.82045004E-1    -3.27946563E+0     3.56282398E-1     1.91855486E+0   
                    1.65000000E+2     1.00000000E+1    -1.95188117E-1    -3.27331761E-1    -2.88591020E-1    -4.83969048E-1    -3.00509746E+0     3.91491342E-1     2.02742010E+0   
                    1.70000000E+2     1.00000000E+1    -1.99627173E-1    -3.34710480E-1    -2.89495233E-1    -4.85390273E-1    -2.81102758E+0     4.17407598E-1     2.10681895E+0   
                    1.75000000E+2     1.00000000E+1    -2.02322280E-1    -3.39188789E-1    -2.90049889E-1    -4.86262167E-1    -2.69531176E+0     4.33268086E-1     2.15511089E+0   
                    1.80000000E+2     1.00000000E+1    -2.03225941E-1    -3.40690221E-1    -2.90236723E-1    -4.86556060E-1    -2.65685763E+0     4.38606732E-1     2.17131634E+0   
                    0.00000000E+0     1.50000000E+1     1.77156915E-1     2.96987579E-1    -3.06844778E-1    -5.14397576E-1    -3.84928344E+0     9.21929109E-1     2.17131647E+0   
                    5.00000000E+0     1.50000000E+1     1.76396448E-1     2.95721646E-1    -3.06694677E-1    -5.14161455E-1    -3.88645563E+0     9.17872402E-1     2.15900454E+0   
                    1.00000000E+1     1.50000000E+1     1.74126722E-1     2.91943050E-1    -3.06248939E-1    -5.13460819E-1    -3.99836210E+0     9.05821271E-1     2.12234566E+0   
                    1.50000000E+1     1.50000000E+1     1.70382745E-1     2.85708396E-1    -3.05521980E-1    -5.12318280E-1    -4.18620422E+0     8.86132766E-1     2.06217371E+0   
                    2.00000000E+1     1.50000000E+1     1.65221122E-1     2.77109279E-1    -3.04537219E-1    -5.10770586E-1    -4.45210514E+0     8.59391082E-1     1.97987729E+0   
                    2.50000000E+1     1.50000000E+1     1.58717571E-1     2.66268371E-1    -3.03326200E-1    -5.08867246E-1    -4.79930686E+0     8.26391456E-1     1.87739686E+0   
                    3.00000000E+1     1.50000000E+1     1.50963720E-1     2.53334363E-1    -3.01927441E-1    -5.06668726E-1    -5.23248188E+0     7.88118030E-1     1.75721816E+0   
                    3.50000000E+1     1.50000000E+1     1.42063399E-1     2.38476111E-1    -3.00385046E-1    -5.04244289E-1    -5.75820601E+0     7.45716150E-1     1.62235936E+0   
                    4.00000000E+1     1.50000000E+1     1.32128695E-1     2.21876405E-1    -2.98747176E-1    -5.01669597E-1    -6.38567354E+0     7.00459678E-1     1.47634791E+0   
                    4.50000000E+1     1.50000000E+1     1.21276046E-1     2.03725763E-1    -2.97064431E-1    -4.99024166E-1    -7.12779845E+0     6.53714055E-1     1.32318195E+0   
                    5.00000000E+1     1.50000000E+1     1.09622583E-1     1.84216635E-1    -2.95388214E-1    -4.96388803E-1    -8.00296660E+0     6.06896016E-1     1.16727019E+0   
                    5.50000000E+1     1.50000000E+1     9.72829764E-2     1.63538370E-1    -2.93769142E-1    -4.93843100E-1    -9.03795548E+0     5.61431039E-1     1.01334330E+0   
                    6.00000000E+1     1.50000000E+1     8.43669098E-2     1.41873170E-1    -2.92255548E-1    -4.91463078E-1    -1.02731027E+1     5.18709721E-1     8.66330783E-1   
                    6.50000000E+1     1.50000000E+1     7.09773184E-2     1.19393243E-1    -2.90892119E-1    -4.89319043E-1    -1.17722029E+1     4.80044457E-1     7.31199164E-1   
                    7.00000000E+1     1.50000000E+1     5.72094242E-2     9.62591975E-2    -2.89718694E-1    -4.87473689E-1    -1.36435510E+1     4.46627845E-1     6.12752359E-1   
                    7.50000000E+1     1.50000000E+1     4.31505706E-2     7.26196978E-2    -2.88769247E-1    -4.85980490E-1    -1.60917936E+1     4.19494288E-1     5.15401514E-1   
                    8.00000000E+1     1.50000000E+1     2.88807999E-2     4.86122822E-2    -2.88071050E-1    -4.84882385E-1    -1.95783217E+1     3.99486231E-1     4.42920248E-1   
                    8.50000000E+1     1.50000000E+1     1.44740729E-2     2.43651911E-2    -2.87644036E-1    -4.84210766E-1    -2.55780660E+1     3.87226342E-1     3.98208958E-1   
                    9.00000000E+1     1.50000000E+1    1.01638582E-17    1.71100747E-17    -2.87500343E-1    -4.83984750E-1    -3.28648499E+2     3.83096772E-1     3.83096772E-1   
                    9.50000000E+1     1.50000000E+1    -1.44740733E-2    -2.43651909E-2    -2.87644045E-1    -4.84210761E-1    -2.55780660E+1     3.87226348E-1     3.98208965E-1   
                    1.00000000E+2     1.50000000E+1    -2.88808012E-2    -4.86122815E-2    -2.88071062E-1    -4.84882379E-1    -1.95783217E+1     3.99486240E-1     4.42920258E-1   
                    1.05000000E+2     1.50000000E+1    -4.31505720E-2    -7.26196971E-2    -2.88769256E-1    -4.85980485E-1    -1.60917936E+1     4.19494296E-1     5.15401522E-1   
                    1.10000000E+2     1.50000000E+1    -5.72094240E-2    -9.62591976E-2    -2.89718694E-1    -4.87473689E-1    -1.36435510E+1     4.46627846E-1     6.12752360E-1   
                    1.15000000E+2     1.50000000E+1    -7.09773154E-2    -1.19393245E-1    -2.90892107E-1    -4.89319050E-1    -1.17722029E+1     4.80044450E-1     7.31199158E-1   
                    1.20000000E+2     1.50000000E+1    -8.43669037E-2    -1.41873174E-1    -2.92255527E-1    -4.91463090E-1    -1.02731028E+1     5.18709708E-1     8.66330770E-1   
                    1.25000000E+2     1.50000000E+1    -9.72829694E-2    -1.63538373E-1    -2.93769121E-1    -4.93843111E-1    -9.03795550E+0     5.61431025E-1     1.01334329E+0   
                    1.30000000E+2     1.50000000E+1    -1.09622580E-1    -1.84216637E-1    -2.95388204E-1    -4.96388808E-1    -8.00296660E+0     6.06896008E-1     1.16727018E+0   
                    1.35000000E+2     1.50000000E+1    -1.21276049E-1    -2.03725761E-1    -2.97064439E-1    -4.99024161E-1    -7.12779845E+0     6.53714057E-1     1.32318195E+0   
                    1.40000000E+2     1.50000000E+1    -1.32128708E-1    -2.21876398E-1    -2.98747204E-1    -5.01669581E-1    -6.38567352E+0     7.00459693E-1     1.47634792E+0   
                    1.45000000E+2     1.50000000E+1    -1.42063418E-1    -2.38476100E-1    -3.00385086E-1    -5.04244267E-1    -5.75820599E+0     7.45716173E-1     1.62235939E+0   
                    1.50000000E+2     1.50000000E+1    -1.50963739E-1    -2.53334352E-1    -3.01927478E-1    -5.06668705E-1    -5.23248186E+0     7.88118050E-1     1.75721818E+0   
                    1.55000000E+2     1.50000000E+1    -1.58717578E-1    -2.66268367E-1    -3.03326214E-1    -5.08867238E-1    -4.79930686E+0     8.26391461E-1     1.87739687E+0   
                    1.60000000E+2     1.50000000E+1    -1.65221106E-1    -2.77109288E-1    -3.04537190E-1    -5.10770602E-1    -4.45210516E+0     8.59391058E-1     1.97987727E+0   
                    1.65000000E+2     1.50000000E+1    -1.70382699E-1    -2.85708421E-1    -3.05521898E-1    -5.12318325E-1    -4.18620428E+0     8.86132705E-1     2.06217365E+0   
                    1.70000000E+2     1.50000000E+1    -1.74126646E-1    -2.91943091E-1    -3.06248805E-1    -5.13460891E-1    -3.99836219E+0     9.05821175E-1     2.12234557E+0   
                    1.75000000E+2     1.50000000E+1    -1.76396349E-1    -2.95721700E-1    -3.06694505E-1    -5.14161548E-1    -3.88645575E+0     9.17872280E-1     2.15900442E+0   
                    1.80000000E+2     1.50000000E+1    -1.77156808E-1    -2.96987637E-1    -3.06844592E-1    -5.14397676E-1    -3.84928357E+0     9.21928977E-1     2.17131634E+0   
                    0.00000000E+0     2.00000000E+1     1.49739495E-1     2.51024749E-1    -3.21117384E-1    -5.38324311E-1    -5.30971834E+0     1.31683070E+0     2.17131647E+0   
                    5.00000000E+0     2.00000000E+1     1.49117566E-1     2.49987510E-1    -3.21005173E-1    -5.38147760E-1    -5.34573191E+0     1.31393261E+0     2.16252224E+0   
                    1.00000000E+1     2.00000000E+1     1.47260017E-1     2.46889425E-1    -3.20671851E-1    -5.37623795E-1    -5.45419602E+0     1.30532384E+0     2.13635688E+0   
                    1.50000000E+1     2.00000000E+1     1.44191615E-1     2.41770768E-1    -3.20128013E-1    -5.36769046E-1    -5.63641215E+0     1.29126133E+0     2.09347326E+0   
                    2.00000000E+1     2.00000000E+1     1.39952578E-1     2.34696980E-1    -3.19390900E-1    -5.35610568E-1    -5.89466748E+0     1.27216523E+0     2.03495275E+0   
                    2.50000000E+1     2.00000000E+1     1.34597061E-1     2.25756290E-1    -3.18483779E-1    -5.34184891E-1    -6.23242782E+0     1.24860699E+0     1.96229419E+0   
                    3.00000000E+1     2.00000000E+1     1.28191190E-1     2.15056590E-1    -3.17435138E-1    -5.32536741E-1    -6.65464341E+0     1.22129300E+0     1.87739681E+0   
                    3.50000000E+1     2.00000000E+1     1.20810766E-1     2.02721817E-1    -3.16277700E-1    -5.30717519E-1    -7.16821438E+0     1.19104427E+0     1.78253546E+0   
                    4.00000000E+1     2.00000000E+1     1.12538810E-1     1.88888043E-1    -3.15047331E-1    -5.28783571E-1    -7.78269714E+0     1.15877257E+0     1.68032591E+0   
                    4.50000000E+1     2.00000000E+1     1.03463076E-1     1.73699537E-1    -3.13781863E-1    -5.26794354E-1    -8.51139540E+0     1.12545360E+0     1.57367796E+0   
                    5.00000000E+1     2.00000000E+1     9.36737093E-2     1.57305024E-1    -3.12519897E-1    -5.24810541E-1    -9.37310116E+0     1.09209795E+0     1.46573391E+0   
                    5.50000000E+1     2.00000000E+1     8.32611543E-2     1.39854349E-1    -3.11299611E-1    -5.22892157E-1    -1.03950024E+1     1.05972064E+0     1.35979034E+0   
                    6.00000000E+1     2.00000000E+1     7.23144372E-2     1.21495709E-1    -3.10157622E-1    -5.21096780E-1    -1.16178388E+1     1.02931014E+0     1.25920227E+0   
                    6.50000000E+1     2.00000000E+1     6.09198820E-2     1.02373575E-1    -3.09127930E-1    -5.19477883E-1    -1.31057861E+1     1.00179772E+0     1.16727029E+0   