##File Type: Far field
##File Format: 4
##Source: patch
##Date: 2018-03-27 16:55:34  
** File exported by FEKO kernel version 14.0.410-508

#Configuration Name: StandardConfiguration1
#Request Name: FarField1
#Frequency:   1.00000000E+009
#Coordinate System: Spherical
#No. of Theta Samples: 37
#No. of Phi Samples: 37
#Result Type: Directivity
#No. of Header Lines: 1
#       "Theta"             "Phi"           "Re(Etheta)"       "Im(Etheta)"        "Re(Ephi)"         "Im(Ephi)"   "Directivity(Theta)" "Directivity(Phi)" "Directivity(Total)"
    0.00000000E+000    0.00000000E+000    2.10555295E+000   -1.92484186E+000    7.23646599E-003   -3.59242088E-002    8.80483908E+000   -2.90200489E+001    8.80555565E+000
    5.00000000E+000    0.00000000E+000    2.09861769E+000   -1.85140623E+000    7.66898922E-003   -3.49991154E-002    8.63813711E+000   -2.92157253E+001    8.63884891E+000
    1.00000000E+001    0.00000000E+000    2.04226368E+000   -1.75210477E+000    7.86885930E-003   -3.36202149E-002    8.29727788E+000   -2.95369061E+001    8.29799292E+000
    1.50000000E+001    0.00000000E+000    1.94080666E+000   -1.63083903E+000    7.84024958E-003   -3.18561248E-002    7.77911995E+000   -2.99812733E+001    7.77984724E+000
    2.00000000E+001    0.00000000E+000    1.80114314E+000   -1.49200205E+000    7.60147271E-003   -2.97890058E-002    7.07948661E+000   -3.05454483E+001    7.08023695E+000
    2.50000000E+001    0.00000000E+000    1.63205504E+000   -1.34019793E+000    7.18206664E-003   -2.75076729E-002    6.19255479E+000   -3.12250555E+001    6.19334181E+000
    3.00000000E+001    0.00000000E+000    1.44337983E+000   -1.17998870E+000    6.61897851E-003   -2.51008599E-002    5.10991128E+000   -3.20148121E+001    5.11075320E+000
    3.50000000E+001    0.00000000E+000    1.24515964E+000   -1.01568749E+000    5.95244534E-003   -2.26513698E-002    3.81910081E+000   -3.29086406E+001    3.82002330E+000
    4.00000000E+001    0.00000000E+000    1.04687282E+000   -8.51207945E-001    5.22213258E-003   -2.02316179E-002    2.30136635E+000   -3.38998067E+001    2.30240774E+000
    4.50000000E+001    0.00000000E+000    8.56826096E-001   -6.89972021E-001    4.46396382E-003   -1.79007987E-002    5.28080889E-001   -3.49810787E+001    5.29302146E-001
    5.00000000E+001    0.00000000E+000    6.81750267E-001   -5.34871742E-001    3.70789980E-003   -1.57036494E-002   -1.54488039E+000   -3.61449070E+001   -1.54337480E+000
    5.50000000E+001    0.00000000E+000    5.26606685E-001   -3.88276936E-001    2.97674637E-003   -1.36705802E-002   -3.98535067E+000   -3.73836108E+001   -3.98336522E+000
    6.00000000E+001    0.00000000E+000    3.94581590E-001   -2.52078754E-001    2.28592291E-003   -1.18188274E-002   -6.89137007E+000   -3.86895476E+001   -6.88850046E+000
    6.50000000E+001    0.00000000E+000    2.87225113E-001   -1.27758306E-001    1.64402474E-003   -1.01542478E-002   -1.03520666E+001   -4.00552035E+001   -1.03474189E+001
    7.00000000E+001    0.00000000E+000    2.04682777E-001   -1.64698859E-002    1.05396551E-003   -8.67340873E-003   -1.40508803E+001   -4.14730781E+001   -1.40430249E+001
    7.50000000E+001    0.00000000E+000    1.45968497E-001    8.08713304E-002    5.14482815E-004   -7.36570283E-003   -1.58527548E+001   -4.29351142E+001   -1.58442605E+001
    8.00000000E+001    0.00000000E+000    1.09236624E-001    1.63506728E-001    2.18144079E-005   -6.21530811E-003   -1.44271200E+001   -4.44312281E+001   -1.44227833E+001
    8.50000000E+001    0.00000000E+000    9.20233134E-002    2.30766056E-001   -4.28610128E-004   -5.20290283E-003   -1.23961869E+001   -4.59462476E+001   -1.23942696E+001
    9.00000000E+001    0.00000000E+000    9.14414996E-002    2.82022217E-001   -8.40581992E-004   -4.30711619E-003   -1.08607411E+001   -4.74544619E+001   -1.08597897E+001
    9.50000000E+001    0.00000000E+000    1.04326685E-001    3.16676693E-001   -1.21572479E-003   -3.50574511E-003   -9.84072975E+000   -4.89117520E+001   -9.84019191E+000
    1.00000000E+002    0.00000000E+000    1.27341208E-001    3.34181666E-001   -1.55238952E-003   -2.77679234E-003   -9.23206142E+000   -5.02485200E+001   -9.23171777E+000
    1.05000000E+002    0.00000000E+000    1.57051862E-001    3.34102147E-001   -1.84491960E-003   -2.09938492E-003   -8.95590990E+000   -5.13733877E+001   -8.95566100E+000
    1.10000000E+002    0.00000000E+000    1.89999316E-001    3.16217592E-001   -2.08337992E-003   -1.45461721E-003   -8.96216727E+000   -5.22006420E+001   -8.96196125E+000
    1.15000000E+002    0.00000000E+000    2.22777688E-001    2.80657185E-001   -2.25384626E-003   -8.26335650E-004   -9.21494035E+000   -5.26943098E+001   -9.21474544E+000
    1.20000000E+002    0.00000000E+000    2.52138866E-001    2.28056718E-001   -2.33933515E-003   -2.01849102E-004   -9.67156243E+000   -5.28864722E+001   -9.67135528E+000
    1.25000000E+002    0.00000000E+000    2.75129006E-001    1.59718291E-001   -2.32140986E-003    4.27482272E-004   -1.02484765E+001   -5.28406695E+001   -1.02482374E+001
    1.30000000E+002    0.00000000E+000    2.89254846E-001    7.77480641E-002   -2.18241998E-003    1.06584724E-003   -1.07719749E+001   -5.25927603E+001   -1.07716894E+001
    1.35000000E+002    0.00000000E+000    2.92666169E-001   -1.48564494E-002   -1.90822298E-003    1.71284408E-003   -1.09619078E+001   -5.21214784E+001   -1.09615753E+001
    1.40000000E+002    0.00000000E+000    2.84330088E-001   -1.14197991E-001   -1.49111266E-003    2.36365514E-003   -1.05745830E+001   -5.13738675E+001   -1.05742217E+001
    1.45000000E+002    0.00000000E+000    2.64165159E-001   -2.15573284E-001   -9.32564094E-004    3.00955242E-003   -9.64641580E+000   -5.03323190E+001   -9.64604497E+000
    1.50000000E+002    0.00000000E+000    2.33101323E-001   -3.13681137E-001   -2.45332932E-004    3.63870229E-003   -8.46123217E+000   -4.90619066E+001   -8.46085399E+000
    1.55000000E+002    0.00000000E+000    1.93037205E-001   -4.02941257E-001    5.45552207E-004    4.23718789E-003   -7.29838520E+000   -4.76875758E+001   -7.29798815E+000
    1.60000000E+002    0.00000000E+000    1.46679790E-001   -4.77901289E-001    1.40326760E-003    4.79013120E-003   -6.32279236E+000   -4.63360102E+001   -6.32235940E+000
    1.65000000E+002    0.00000000E+000    9.72713163E-002   -5.33691323E-001    2.28131155E-003    5.28278374E-003   -5.61280735E+000   -4.51006563E+001   -5.61231873E+000
    1.70000000E+002    0.00000000E+000    4.82307057E-002   -5.66471398E-001    3.12716223E-003    5.70146946E-003   -5.20560578E+000   -4.40385794E+001   -5.20503763E+000
    1.75000000E+002    0.00000000E+000    2.75668458E-003   -5.73812073E-001    3.88708763E-003    6.03430305E-003   -5.12504105E+000   -4.31805856E+001   -5.12436154E+000
    1.80000000E+002    0.00000000E+000   -3.65481468E-002   -5.54953092E-001    4.51147200E-003    6.27165881E-003   -5.39661353E+000   -4.25417313E+001   -5.39577556E+000
    0.00000000E+000    1.00000000E+001    2.07482147E+000   -1.90183736E+000   -3.58498905E-001    2.98866841E-001    8.68774191E+000   -6.91910173E+000    8.80555565E+000
    5.00000000E+000    1.00000000E+001    2.06824854E+000   -1.82760013E+000   -3.54768397E-001    3.02707562E-001    8.51774608E+000   -6.92609238E+000    8.64000296E+000
    1.00000000E+001    1.00000000E+001    2.01240588E+000   -1.72762119E+000   -3.47906334E-001    3.04865053E-001    8.17176804E+000   -6.99677227E+000    8.30190693E+000
    1.50000000E+001    1.00000000E+001    1.91165309E+000   -1.60592211E+000   -3.38092775E-001    3.04995155E-001    7.64671739E+000   -7.13393922E+000    7.78881746E+000
    2.00000000E+001    1.00000000E+001    1.77295346E+000   -1.46700561E+000   -3.25556482E-001    3.02844177E-001    6.93850974E+000   -7.34043266E+000    7.09769631E+000
    2.50000000E+001    1.00000000E+001    1.60515827E+000   -1.31555758E+000   -3.10576241E-001    2.98278577E-001    6.04144051E+000   -7.61878854E+000    6.22449341E+000
    3.00000000E+001    1.00000000E+001    1.41815596E+000   -1.15618218E+000   -2.93482184E-001    2.91298693E-001    4.94722045E+000   -7.97091107E+000    5.16354705E+000
    3.50000000E+001    1.00000000E+001    1.22200460E+000   -9.93190497E-001   -2.74654050E-001    2.82035342E-001    3.64349611E+000   -8.39781250E+000    3.90677910E+000
    4.00000000E+001    1.00000000E+001    1.02615511E+000   -8.30452759E-001   -2.54514229E-001    2.70731177E-001    2.11155704E+000   -8.89945162E+000    2.44270409E+000
    4.50000000E+001    1.00000000E+001    8.38844333E-001   -6.71314556E-001   -2.33514944E-001    2.57711069E-001    3.22738766E-001   -9.47468358E+000    7.55477237E-001
    5.00000000E+001    1.00000000E+001    6.66700057E-001   -5.18570383E-001   -2.12120553E-001    2.43346994E-001   -1.76717824E+000   -1.01213206E+001   -1.17503527E+000
    5.50000000E+001    1.00000000E+001    5.14562154E-001   -3.74483898E-001   -1.90787163E-001    2.28022883E-001   -4.22585170E+000   -1.08362983E+001   -3.36848556E+000
    6.00000000E+001    1.00000000E+001    3.85493470E-001   -2.40842622E-001   -1.69942304E-001    2.12103932E-001   -7.14901346E+000   -1.16159442E+001   -5.82153375E+000
    6.50000000E+001    1.00000000E+001    2.80933872E-001   -1.19035006E-001   -1.49967193E-001    1.95913249E-001   -1.06113566E+001   -1.24563478E+001   -8.42630544E+000
    7.00000000E+001    1.00000000E+001    2.00942963E-001   -1.01387869E-002   -1.31183390E-001    1.79717064E-001   -1.42280366E+001   -1.33538421E+001   -1.07586805E+001
    7.50000000E+001    1.00000000E+001    1.44479287E-001    8.49893275E-002   -1.13844615E-001    1.63718198E-001   -1.58138658E+001   -1.43056075E+001   -1.19842879E+001
    8.00000000E+001    1.00000000E+001    1.09673568E-001    1.65631640E-001   -9.81335094E-002    1.48056483E-001   -1.43387295E+001   -1.53104163E+001   -1.17871539E+001
    8.50000000E+001    1.00000000E+001    9.40669940E-002    2.31143485E-001   -8.41623854E-002    1.32814249E-001   -1.23573341E+001   -1.63695352E+001   -1.09054002E+001
    9.00000000E+001    1.00000000E+001    9.48000120E-002    2.80911069E-001   -7.19766517E-002    1.18024908E-001   -1.08607415E+001   -1.74878105E+001   -1.00063486E+001
    9.50000000E+001    1.00000000E+001    1.08750036E-001    3.14340141E-001   -6.15596411E-002    1.03682862E-001   -9.86155868E+000   -1.86749729E+001   -9.32532351E+000
    1.00000000E+002    1.00000000E+001    1.32626868E-001    3.30881053E-001   -5.28379211E-002    8.97533900E-002   -9.26003087E+000   -1.99472315E+001   -8.90427267E+000
    1.05000000E+002    1.00000000E+001    1.63041645E-001    3.30093363E-001   -4.56867393E-002    7.61816846E-002   -8.97972532E+000   -2.13292545E+001   -8.73397949E+000
    1.10000000E+002    1.00000000E+001    1.96568635E-001    3.11749375E-001   -3.99358683E-002    6.29007505E-002   -8.97067698E+000   -2.28565269E+001   -8.79670800E+000
    1.15000000E+002    1.00000000E+001    2.29819080E-001    2.75970872E-001   -3.53766348E-002    4.98383661E-002   -9.19542124E+000   -2.45771998E+001   -9.07142968E+000
    1.20000000E+002    1.00000000E+001    2.59542528E-001    2.23386988E-001   -3.17711757E-002    3.69237349E-002   -9.60888527E+000   -2.65479788E+001   -9.52188558E+000
    1.25000000E+002    1.00000000E+001    2.82763912E-001    1.55294372E-001   -2.88648587E-002    2.40946936E-002   -1.01272054E+001   -2.87968569E+001   -1.00686070E+001
    1.30000000E+002    1.00000000E+001    2.96954480E-001    7.37946840E-002   -2.64022749E-002    1.13063660E-002   -1.05864951E+001   -3.11364480E+001   -1.05483988E+001
    1.35000000E+002    1.00000000E+001    3.00222865E-001   -1.81193940E-002   -2.41462920E-002   -1.45813666E-003   -1.07358691E+001   -3.26277175E+001   -1.07078665E+001
    1.40000000E+002    1.00000000E+001    2.91501041E-001   -1.16558373E-001   -2.18985206E-002   -1.41749984E-002   -1.03635847E+001   -3.19724082E+001   -1.03337029E+001
    1.45000000E+002    1.00000000E+001    2.70691218E-001   -2.16833674E-001   -1.95184467E-002   -2.67659091E-002   -9.49821881E+000   -2.98969500E+001   -9.45877874E+000
    1.50000000E+002    1.00000000E+001    2.38736967E-001   -3.13670785E-001   -1.69378029E-002   -3.90852049E-002   -8.38645234E+000   -2.77128637E+001   -8.33603039E+000
    1.55000000E+002    1.00000000E+001    1.97587048E-001   -4.01533299E-001   -1.41667834E-002   -5.09108533E-002   -7.28438393E+000   -2.58404278E+001   -7.22424310E+000
    1.60000000E+002    1.00000000E+001    1.50034427E-001   -4.75033946E-001   -1.12896875E-002   -6.19426369E-002   -6.35308446E+000   -2.43188180E+001   -6.28425649E+000
    1.65000000E+002    1.00000000E+001    9.94342298E-002   -5.29390227E-001   -8.44941035E-003   -7.18105528E-002   -5.67444119E+000   -2.31170561E+001   -5.59688097E+000
    1.70000000E+002    1.00000000E+001    4.93288192E-002   -5.60868706E-001   -5.82256869E-003   -8.00951716E-002   -5.28984587E+000   -2.22055176E+001   -5.20238043E+000
    1.75000000E+002    1.00000000E+001    3.03022035E-003   -5.67157311E-001   -3.58933417E-003   -8.63596051E-002   -5.22634024E+000   -2.15668262E+001   -5.12662979E+000
    1.80000000E+002    1.00000000E+001   -3.67763072E-002   -5.47611170E-001   -1.90358648E-003   -9.01902149E-002   -5.51154563E+000   -2.11954122E+001   -5.39577556E+000
    0.00000000E+000    2.00000000E+001    1.98104759E+000   -1.82104649E+000   -7.13341469E-001    6.24576973E-001    8.29730654E+000   -7.63167718E-001    8.80555565E+000
    5.00000000E+000    2.00000000E+001    1.97559711E+000   -1.74495132E+000   -7.06256000E-001    6.30705508E-001    8.11796258E+000   -7.74610655E-001    8.64507680E+000
    1.00000000E+001    2.00000000E+001    1.92151680E+000   -1.64378225E+000   -6.92191778E-001    6.32870255E-001    7.75735911E+000   -8.57415014E-001    8.31713903E+000
    1.50000000E+001    2.00000000E+001    1.82325572E+000   -1.52183617E+000   -6.71590278E-001    6.30576899E-001    7.21244614E+000   -1.01319386E+000    7.82118092E+000
    2.00000000E+001    2.00000000E+001    1.68791376E+000   -1.38385233E+000   -6.45053440E-001    6.23519465E-001    6.47927388E+000   -1.24327501E+000    7.15721432E+000
    2.50000000E+001    2.00000000E+001    1.52447783E+000   -1.23467382E+000   -6.13323701E-001    6.11619455E-001    5.55232594E+000   -1.54850775E+000    6.32581250E+000
    3.00000000E+001    2.00000000E+001    1.34292147E+000   -1.07895697E+000   -5.77259985E-001    5.95037097E-001    4.42349856E+000   -1.92908261E+000    5.32820162E+000
    3.50000000E+001    2.00000000E+001    1.15329894E+000   -9.20952738E-001   -5.37808221E-001    5.74154076E-001    3.08054707E+000   -2.38439614E+000    4.16661174E+000
    4.00000000E+001    2.00000000E+001    9.64950173E-001   -7.64369333E-001   -4.95966107E-001    5.49532135E-001    1.50470729E+000   -2.91298336E+000    2.84520939E+000
    4.50000000E+001    2.00000000E+001    7.85898653E-001   -6.12312269E-001   -4.52743498E-001    5.21855450E-001   -3.32954055E-001   -3.51253152E+000    1.37226261E+000
    5.00000000E+001    2.00000000E+001    6.22480995E-001   -4.67289093E-001   -4.09121386E-001    4.91866371E-001   -2.47694339E+000   -4.17998128E+000   -2.35213381E-001
    5.50000000E+001    2.00000000E+001    4.79205559E-001   -3.31261743E-001   -3.66013249E-001    4.60303623E-001   -4.99377086E+000   -4.91171833E+000   -1.94225086E+000
    6.00000000E+001    2.00000000E+001    3.58804607E-001   -2.05729134E-001   -3.24232528E-001    4.27850154E-001   -7.96891764E+000   -5.70385907E+000   -3.68006492E+000
    6.50000000E+001    2.00000000E+001    2.62425418E-001   -9.18246693E-002   -2.84469010E-001    3.95094945E-001   -1.14188034E+001   -6.55263673E+000   -5.32679399E+000
    7.00000000E+001    2.00000000E+001    1.89900176E-001    9.58354297E-003   -2.47275431E-001    3.62510266E-001   -1.47189808E+001   -7.45490049E+000   -6.70763110E+000
    7.50000000E+001    2.00000000E+001    1.40039801E-001    9.77991177E-002   -2.13063975E-001    3.30443409E-001   -1.56503052E+001   -8.40874611E+000   -7.65790888E+000
    8.00000000E+001    2.00000000E+001    1.10909345E-001    1.72217769E-001   -1.82110993E-001    2.99120332E-001   -1.40721964E+001   -9.41430603E+000   -8.13630970E+000
    8.50000000E+001    2.00000000E+001    1.00057996E-001    2.32267799E-001   -1.54567431E-001    2.68657889E-001   -1.22414549E+001   -1.04747405E+001   -8.25857282E+000
    9.00000000E+001    2.00000000E+001    1.04692059E-001    2.77376357E-001   -1.30472203E-001    2.39081266E-001   -1.08607415E+001   -1.15974999E+001   -8.20321603E+000
    9.50000000E+001    2.00000000E+001    1.21792410E-001    3.06966749E-001   -1.09766119E-001    2.10343687E-001   -9.92380129E+000   -1.27959858E+001   -8.11636045E+000
    1.00000000E+002    2.00000000E+001    1.48187977E-001    3.20491198E-001   -9.23047108E-002    1.82346252E-001   -9.34276607E+000   -1.40918574E+001   -8.08783783E+000
    1.05000000E+002    2.00000000E+001    1.80603410E-001    3.17501636E-001   -7.78693408E-002    1.54956571E-001   -9.04816668E+000   -1.55184535E+001   -8.16535591E+000
    1.10000000E+002    2.00000000E+001    2.15702358E-001    2.97757762E-001   -6.61769980E-002    1.28025768E-001   -8.99117944E+000   -1.71261715E+001   -8.37048105E+000
    1.15000000E+002    2.00000000E+001    2.50147553E-001    2.61366717E-001   -5.68900868E-002    1.01404130E-001   -9.13159105E+000   -1.89909995E+001   -8.70469341E+000
    1.20000000E+002    2.00000000E+001    2.80695162E-001    2.08942428E-001   -4.96279907E-002    7.49562858E-002   -9.42106362E+000   -2.12256784E+001   -9.14349493E+000
    1.25000000E+002    2.00000000E+001    3.04333496E-001    1.41765660E-001   -4.39821823E-002    4.85770795E-002   -9.78066460E+000   -2.39717476E+001   -9.61828491E+000
    1.30000000E+002    2.00000000E+001    3.18465315E-001    6.19194158E-002   -3.95360067E-002    2.22092238E-002   -1.00781418E+001   -2.71695742E+001   -9.99411206E+000
    1.35000000E+002    2.00000000E+001    3.21119750E-001   -2.76297265E-002   -3.58890489E-002   -4.13669565E-003   -1.01351613E+001   -2.91439769E+001   -1.00809377E+001
    1.40000000E+002    2.00000000E+001    3.11166217E-001   -1.23033587E-001   -3.26843886E-002   -3.03603569E-002   -9.80984091E+000   -2.73119593E+001   -9.73332686E+000
    1.45000000E+002    2.00000000E+001    2.88491645E-001   -2.19670905E-001   -2.96354232E-002   -5.62499089E-002   -9.11184759E+000   -2.42342381E+001   -8.98033927E+000
    1.50000000E+002    2.00000000E+001    2.54097574E-001   -3.12373219E-001   -2.65477824E-002   -8.14637697E-002   -8.20156345E+000   -2.16429054E+001   -8.00925463E+000
    1.55000000E+002    2.00000000E+001    2.10078199E-001   -3.95761115E-001   -2.33316489E-002   -1.05520835E-001   -7.27376932E+000   -1.96264737E+001   -7.02819810E+000
    1.60000000E+002    2.00000000E+001    1.59455812E-001   -4.64663263E-001   -2.00008715E-002   -1.27804391E-001   -6.47427595E+000   -1.80645380E+001   -6.18312433E+000
    1.65000000E+002    2.00000000E+001    1.05874810E-001   -5.14571693E-001   -1.66575674E-002   -1.47584188E-001   -5.89154633E+000   -1.68647619E+001   -5.55761349E+000
    1.70000000E+002    2.00000000E+001    5.31850508E-002   -5.42073894E-001   -1.34640364E-002   -1.64058832E-001   -5.57775825E+000   -1.59713900E+001   -5.19817776E+000
    1.75000000E+002    2.00000000E+001    4.97256669E-003   -5.45199715E-001   -1.06069305E-002   -1.76416982E-001   -5.56906124E+000   -1.53540561E+001   -5.13514264E+000
    1.80000000E+002    2.00000000E+001   -3.58870382E-002   -5.23630359E-001   -8.26080546E-003   -1.83911705E-001   -5.89968725E+000   -1.49995942E+001   -5.39577556E+000
    0.00000000E+000    3.00000000E+001    1.82708058E+000   -1.68492405E+000   -1.04650951E+000    9.31309650E-001    7.60737644E+000    2.62760562E+000    8.80555565E+000
    5.00000000E+000    3.00000000E+001    1.82362550E+000   -1.60625493E+000   -1.03601374E+000    9.38631410E-001    7.41215308E+000    2.60949606E+000    8.65370064E+000
    1.00000000E+001    3.00000000E+001    1.77306189E+000   -1.50382898E+000   -1.01389124E+000    9.39488966E-001    7.02762302E+000    2.51119684E+000    8.34212195E+000
    1.50000000E+001    3.00000000E+001    1.67987556E+000   -1.38226493E+000   -9.80964092E-001    9.33436349E-001    6.45049819E+000    2.33249681E+000    7.87262747E+000
    2.00000000E+001    3.00000000E+001    1.55122438E+000   -1.24656487E+000   -9.38403902E-001    9.20303659E-001    5.67665937E+000    2.07379827E+000    7.24889434E+000
    2.50000000E+001    3.00000000E+001    1.39612844E+000   -1.10172893E+000   -8.87660230E-001    9.00225030E-001    4.70043129E+000    1.73617250E+000    6.47674523E+000
    3.00000000E+001    3.00000000E+001    1.22452332E+000   -9.52435821E-001   -8.30376141E-001    8.73632925E-001    3.51348860E+000    1.32140091E+000    5.56460717E+000
    3.50000000E+001    3.00000000E+001    1.04632090E+000   -8.02817294E-001   -7.68297329E-001    8.41220229E-001    2.10321763E+000    8.31985360E-001    4.52424947E+000
    4.00000000E+001    3.00000000E+001    8.70602849E-001   -6.56334742E-001   -7.03181728E-001    8.03876879E-001    4.50277644E-001    2.71113181E-001    3.37191921E+000
    4.50000000E+001    3.00000000E+001    7.05030922E-001   -5.15749040E-001   -6.36716367E-001    7.62611291E-001   -1.47491574E+000   -3.57435046E-001    2.12996814E+000
    5.00000000E+001    3.00000000E+001    5.55509226E-001   -3.83163520E-001   -5.70447420E-001    7.18467982E-001   -3.71655903E+000   -1.04944410E+000    8.28902632E-001
    5.50000000E+001    3.00000000E+001    4.26087282E-001   -2.60115577E-001   -5.05727761E-001    6.72451750E-001   -6.33487180E+000   -1.80049724E+000   -4.90678561E-001
    6.00000000E+001    3.00000000E+001    3.19058849E-001   -1.47693434E-001   -4.43684268E-001    6.25466079E-001   -9.37993211E+000   -2.60629233E+000   -1.77771509E+000
    6.50000000E+001    3.00000000E+001    2.35193366E-001   -4.66590097E-002   -3.85204737E-001    5.78270014E-001   -1.27043865E+001   -3.46305211E+000   -2.97441126E+000
    7.00000000E+001    3.00000000E+001    1.74034101E-001    4.24366453E-002   -3.30942210E-001    5.31454456E-001   -1.52370086E+001   -4.36804445E+000   -4.02630972E+000
    7.50000000E+001    3.00000000E+001    1.34205847E-001    1.19154037E-001   -2.81332901E-001    4.85436128E-001   -1.52207768E+001   -5.32023685E+000   -4.89717346E+000
    8.00000000E+001    3.00000000E+001    1.13690330E-001    1.83087352E-001   -2.36623069E-001    4.40465862E-001   -1.36310078E+001   -6.32112348E+000   -5.58106252E+000
    8.50000000E+001    3.00000000E+001    1.10044918E-001    2.33811659E-001   -1.96900072E-001    3.96647151E-001   -1.20542154E+001   -7.37578996E+000   -6.10301931E+000
    9.00000000E+001    3.00000000E+001    1.20556372E-001    2.70858332E-001   -1.62123347E-001    3.53961039E-001   -1.08607413E+001   -8.49433373E+000   -6.50801521E+000
    9.50000000E+001    3.00000000E+001    1.42334573E-001    2.93721879E-001   -1.32152063E-001    3.12294091E-001   -1.00257474E+001   -9.69386743E+000   -6.84633804E+000
    1.00000000E+002    3.00000000E+001    1.72360778E-001    3.01901128E-001   -1.06767410E-001    2.71467081E-001   -9.47797749E+000   -1.10015631E+001   -7.16299740E+000
    1.05000000E+002    3.00000000E+001    2.07511056E-001    2.94976459E-001   -8.56888267E-002    2.31263012E-001   -9.15869841E+000   -1.24597026E+001   -7.49254147E+000
    1.10000000E+002    3.00000000E+001    2.44578501E-001    2.72722014E-001   -6.85846778E-002    1.91453948E-001   -9.02314114E+000   -1.41348900E+001   -7.85641742E+000
    1.15000000E+002    3.00000000E+001    2.80317509E-001    2.35247186E-001   -5.50789459E-002    1.51826835E-001   -9.03210825E+000   -1.61366135E+001   -8.25922048E+000
    1.20000000E+002    3.00000000E+001    3.11529698E-001    1.83155517E-001   -4.47561807E-002    1.12208892E-001   -9.14121300E+000   -1.86588060E+001   -8.68114849E+000
    1.25000000E+002    3.00000000E+001    3.35203476E-001    1.17702009E-001   -3.71672221E-002    7.24932751E-002   -9.28942060E+000   -2.20810279E+001   -9.06686012E+000
    1.30000000E+002    3.00000000E+001    3.48707763E-001    4.09232778E-002   -3.18379536E-002    3.26654026E-002   -9.39189689E+000   -2.71184740E+001   -9.31920484E+000
    1.35000000E+002    3.00000000E+001    3.50025628E-001   -4.42891467E-002   -2.82825502E-002   -7.17039897E-003   -9.34955765E+000   -3.09996205E+001   -9.31995728E+000
    1.40000000E+002    3.00000000E+001    3.37997748E-001   -1.34201669E-001   -2.60214485E-002   -4.67654231E-002   -9.08649385E+000   -2.57306219E+001   -8.99344506E+000
    1.45000000E+002    3.00000000E+001    3.12531896E-001   -2.24360172E-001   -2.46027963E-002   -8.57052220E-002   -8.59751656E+000   -2.12964907E+001   -8.37028136E+000
    1.50000000E+002    3.00000000E+001    2.74727699E-001   -3.09829206E-001   -2.36247965E-002   -1.23396688E-001   -7.95866747E+000   -1.83181238E+001   -7.57621647E+000
    1.55000000E+002    3.00000000E+001    2.26869613E-001   -3.85538507E-001   -2.27555312E-002   -1.59068827E-001   -7.28785217E+000   -1.61808538E+001   -6.76078690E+000
    1.60000000E+002    3.00000000E+001    1.72257803E-001   -4.46704873E-001   -2.17468773E-002   -1.91792381E-001   -6.69804782E+000   -1.45884276E+001   -6.04396631E+000
    1.65000000E+002    3.00000000E+001    1.14875249E-001   -4.89278241E-001   -2.04401209E-002   -2.20521928E-001   -6.27638163E+000   -1.33943467E+001   -5.50568534E+000
    1.70000000E+002    3.00000000E+001    5.89246000E-002   -5.10349235E-001   -1.87626593E-002   -2.44161027E-001   -6.08567283E+000   -1.25214374E+001   -5.19649120E+000
    1.75000000E+002    3.00000000E+001    8.30150643E-003   -5.08455746E-001   -1.67172537E-002   -2.61646727E-001   -6.17431418E+000   -1.19285359E+001   -5.15061528E+000
    1.80000000E+002    3.00000000E+001   -3.39073596E-002   -4.83739305E-001   -1.43670240E-002   -2.72045130E-001   -6.58702184E+000   -1.15956201E+001   -5.39577556E+000
    0.00000000E+000    4.00000000E+001    1.61759865E+000   -1.49760604E+000   -1.34787989E+000    1.20974495E+000    6.56533561E+000    4.85855183E+000    8.80555565E+000
    5.00000000E+000    4.00000000E+001    1.61714232E+000   -1.41613630E+000   -1.33402985E+000    1.21687283E+000    6.34644067E+000    4.83219409E+000    8.66528192E+000
    1.00000000E+001    4.00000000E+001    1.57250054E+000   -1.31301973E+000   -1.30307767E+000    1.21481833E+000    5.92862584E+000    4.71525381E+000    8.37447806E+000
    1.50000000E+001    4.00000000E+001    1.48802300E+000   -1.19311206E+000   -1.25633495E+000    1.20338123E+000    5.30776832E+000    4.50887745E+000    7.93696664E+000
    2.00000000E+001    4.00000000E+001    1.37066432E+000   -1.06158031E+000   -1.19572657E+000    1.18271554E+000    4.47888303E+000    4.21514680E+000    7.35931657E+000
    2.50000000E+001    4.00000000E+001    1.22916494E+000   -9.23484265E-001   -1.12364008E+000    1.15332680E+000    3.43533284E+000    3.83703758E+000    6.65112802E+000
    3.00000000E+001    4.00000000E+001    1.07309853E+000   -7.83437838E-001   -1.04274878E+000    1.11603590E+000    2.16768795E+000    3.37835397E+000    5.82537161E+000
    3.50000000E+001    4.00000000E+001    9.11936235E-001   -6.45381247E-001   -9.55828595E-001    1.07191429E+000    6.62114288E-001    2.84363323E+000    4.89873317E+000
    4.00000000E+001    4.00000000E+001    7.54255337E-001   -5.12471327E-001   -8.65587521E-001    1.02219961E+000   -1.10176627E+000    2.23801335E+000    3.89185289E+000
    4.50000000E+001    4.00000000E+001    6.07176234E-001   -3.87077198E-001   -7.74522842E-001    9.68202581E-001   -3.15311652E+000    1.56705665E+000    2.82926021E+000
    5.00000000E+001    4.00000000E+001    4.76058804E-001   -2.70855637E-001   -6.84815962E-001    9.11216579E-001   -5.52939821E+000    8.36521223E-001    1.73871916E+000
    5.50000000E+001    4.00000000E+001    3.64441522E-001   -1.64875880E-001   -5.98268793E-001    8.52438904E-001   -8.25928951E+000    5.20715352E-002    6.49690872E-001
    6.00000000E+001    4.00000000E+001    2.74172529E-001   -6.97656909E-002   -5.16280247E-001    7.92910252E-001   -1.12675820E+001   -7.81082093E-001   -4.09198134E-001
    6.50000000E+001    4.00000000E+001    2.05665089E-001    1.41433743E-002   -4.39857155E-001    7.33475156E-001   -1.40168332E+001   -1.65862837E+000   -1.41335937E+000
    7.00000000E+001    4.00000000E+001    1.58209152E-001    8.66861777E-002   -3.69651304E-001    6.74763268E-001   -1.51757416E+001   -2.57770260E+000   -2.34526484E+000
    7.50000000E+001    4.00000000E+001    1.30281629E-001    1.47757987E-001   -3.06013291E-001    6.17189026E-001   -1.44115768E+001   -3.53756479E+000   -3.19621183E+000
    8.00000000E+001    4.00000000E+001    1.19814990E-001    1.97236108E-001   -2.49054218E-001    5.60965978E-001   -1.30367097E+001   -4.54045383E+000   -3.96616805E+000
    8.50000000E+001    4.00000000E+001    1.24402160E-001    2.34930825E-001   -1.98707534E-001    5.06131680E-001   -1.18082829E+001   -5.59269788E+000   -4.66190072E+000
    9.00000000E+001    4.00000000E+001    1.41432102E-001    2.60566757E-001   -1.54785123E-001    4.52579426E-001   -1.08607413E+001   -6.70622961E+000   -5.29426484E+000
    9.50000000E+001    4.00000000E+001    1.68163412E-001    2.73795985E-001   -1.17023578E-001    4.00093823E-001   -1.01619214E+001   -7.90079726E+000   -5.87553717E+000
    1.00000000E+002    4.00000000E+001    2.01752366E-001    2.74244475E-001   -8.51184319E-002    3.48388157E-001   -9.65917413E+000   -9.20746825E+000   -6.41715119E+000
    1.05000000E+002    4.00000000E+001    2.39257570E-001    2.61592485E-001   -5.87455913E-002    2.97142318E-001   -9.30805243E+000   -1.06747297E+001   -6.92755168E+000
    1.10000000E+002    4.00000000E+001    2.77645934E-001    2.35687294E-001   -3.75705147E-002    2.46040735E-001   -9.07392842E+000   -1.23802910E+001   -7.40947810E+000